V -t * -v 1.0a5 -a 0
A -t * -n 1 -p 0 -o 0x7fffffff -c 30 -a 1
A -t * -h 1 -m 1073741823 -s 0
c -t * -i 0 -n RED
n -t * -a 4 -s 4 -S UP -v circle -c black -i black
n -t * -a 0 -s 0 -S UP -v circle -c black -i black
n -t * -a 5 -s 5 -S UP -v circle -c black -i black
n -t * -a 1 -s 1 -S UP -v circle -c black -i black
n -t * -a 6 -s 6 -S UP -v circle -c black -i black
n -t * -a 2 -s 2 -S UP -v circle -c black -i black
n -t * -a 7 -s 7 -S UP -v circle -c black -i black
n -t * -a 3 -s 3 -S UP -v circle -c black -i black
l -t * -s 0 -d 3 -S UP -r 1000000 -D 0.002 -c black -o right-down
l -t * -s 2 -d 3 -S UP -r 1000000 -D 0.0030000000000000001 -c black -o right-up
l -t * -s 1 -d 3 -S UP -r 1000000 -D 0.0040000000000000001 -c black -o right
l -t * -s 3 -d 4 -S UP -r 1000000 -D 0.044999999999999998 -c black -o right
l -t * -s 5 -d 4 -S UP -r 10000000 -D 0.0040000000000000001 -c black -o left-down
l -t * -s 6 -d 4 -S UP -r 10000000 -D 0.0050000000000000001 -c black -o left-up
l -t * -s 7 -d 4 -S UP -r 10000000 -D 0.0040000000000000001 -c black -o left
q -t * -s 3 -d 4 -a 0
q -t * -s 4 -d 3 -a 0
+ -t 0 -s 0 -d 3 -p tcp -e 40 -c 0 -i 0 -a 0 -x {0.0 5.0 0 ------- null}
- -t 0 -s 0 -d 3 -p tcp -e 40 -c 0 -i 0 -a 0 -x {0.0 5.0 0 ------- null}
h -t 0 -s 0 -d 3 -p tcp -e 40 -c 0 -i 0 -a 0 -x {0.0 5.0 -1 ------- null}
r -t 0.00232 -s 0 -d 3 -p tcp -e 40 -c 0 -i 0 -a 0 -x {0.0 5.0 0 ------- null}
+ -t 0.00232 -s 3 -d 4 -p tcp -e 40 -c 0 -i 0 -a 0 -x {0.0 5.0 0 ------- null}
- -t 0.00232 -s 3 -d 4 -p tcp -e 40 -c 0 -i 0 -a 0 -x {0.0 5.0 0 ------- null}
h -t 0.00232 -s 3 -d 4 -p tcp -e 40 -c 0 -i 0 -a 0 -x {0.0 5.0 -1 ------- null}
r -t 0.04764 -s 3 -d 4 -p tcp -e 40 -c 0 -i 0 -a 0 -x {0.0 5.0 0 ------- null}
+ -t 0.04764 -s 4 -d 5 -p tcp -e 40 -c 0 -i 0 -a 0 -x {0.0 5.0 0 ------- null}
- -t 0.04764 -s 4 -d 5 -p tcp -e 40 -c 0 -i 0 -a 0 -x {0.0 5.0 0 ------- null}
h -t 0.04764 -s 4 -d 5 -p tcp -e 40 -c 0 -i 0 -a 0 -x {0.0 5.0 -1 ------- null}
r -t 0.051672 -s 4 -d 5 -p tcp -e 40 -c 0 -i 0 -a 0 -x {0.0 5.0 0 ------- null}
+ -t 0.051672 -s 5 -d 4 -p ack -e 40 -c 0 -i 1 -a 0 -x {5.0 0.0 0 ------- null}
- -t 0.051672 -s 5 -d 4 -p ack -e 40 -c 0 -i 1 -a 0 -x {5.0 0.0 0 ------- null}
h -t 0.051672 -s 5 -d 4 -p ack -e 40 -c 0 -i 1 -a 0 -x {5.0 0.0 -1 ------- null}
r -t 0.055704 -s 5 -d 4 -p ack -e 40 -c 0 -i 1 -a 0 -x {5.0 0.0 0 ------- null}
+ -t 0.055704 -s 4 -d 3 -p ack -e 40 -c 0 -i 1 -a 0 -x {5.0 0.0 0 ------- null}
- -t 0.055704 -s 4 -d 3 -p ack -e 40 -c 0 -i 1 -a 0 -x {5.0 0.0 0 ------- null}
h -t 0.055704 -s 4 -d 3 -p ack -e 40 -c 0 -i 1 -a 0 -x {5.0 0.0 -1 ------- null}
r -t 0.101024 -s 4 -d 3 -p ack -e 40 -c 0 -i 1 -a 0 -x {5.0 0.0 0 ------- null}
+ -t 0.101024 -s 3 -d 0 -p ack -e 40 -c 0 -i 1 -a 0 -x {5.0 0.0 0 ------- null}
- -t 0.101024 -s 3 -d 0 -p ack -e 40 -c 0 -i 1 -a 0 -x {5.0 0.0 0 ------- null}
h -t 0.101024 -s 3 -d 0 -p ack -e 40 -c 0 -i 1 -a 0 -x {5.0 0.0 -1 ------- null}
r -t 0.103344 -s 3 -d 0 -p ack -e 40 -c 0 -i 1 -a 0 -x {5.0 0.0 0 ------- null}
+ -t 0.103344 -s 0 -d 3 -p tcp -e 616 -c 0 -i 2 -a 0 -x {0.0 5.0 1 ------- null}
- -t 0.103344 -s 0 -d 3 -p tcp -e 616 -c 0 -i 2 -a 0 -x {0.0 5.0 1 ------- null}
h -t 0.103344 -s 0 -d 3 -p tcp -e 616 -c 0 -i 2 -a 0 -x {0.0 5.0 -1 ------- null}
+ -t 0.103344 -s 0 -d 3 -p tcp -e 616 -c 0 -i 3 -a 0 -x {0.0 5.0 2 ------- null}
- -t 0.108272 -s 0 -d 3 -p tcp -e 616 -c 0 -i 3 -a 0 -x {0.0 5.0 2 ------- null}
h -t 0.108272 -s 0 -d 3 -p tcp -e 616 -c 0 -i 3 -a 0 -x {0.0 5.0 -1 ------- null}
r -t 0.110272 -s 0 -d 3 -p tcp -e 616 -c 0 -i 2 -a 0 -x {0.0 5.0 1 ------- null}
+ -t 0.110272 -s 3 -d 4 -p tcp -e 616 -c 0 -i 2 -a 0 -x {0.0 5.0 1 ------- null}
- -t 0.110272 -s 3 -d 4 -p tcp -e 616 -c 0 -i 2 -a 0 -x {0.0 5.0 1 ------- null}
h -t 0.110272 -s 3 -d 4 -p tcp -e 616 -c 0 -i 2 -a 0 -x {0.0 5.0 -1 ------- null}
r -t 0.1152 -s 0 -d 3 -p tcp -e 616 -c 0 -i 3 -a 0 -x {0.0 5.0 2 ------- null}
+ -t 0.1152 -s 3 -d 4 -p tcp -e 616 -c 0 -i 3 -a 0 -x {0.0 5.0 2 ------- null}
- -t 0.1152 -s 3 -d 4 -p tcp -e 616 -c 0 -i 3 -a 0 -x {0.0 5.0 2 ------- null}
h -t 0.1152 -s 3 -d 4 -p tcp -e 616 -c 0 -i 3 -a 0 -x {0.0 5.0 -1 ------- null}
r -t 0.1602 -s 3 -d 4 -p tcp -e 616 -c 0 -i 2 -a 0 -x {0.0 5.0 1 ------- null}
+ -t 0.1602 -s 4 -d 5 -p tcp -e 616 -c 0 -i 2 -a 0 -x {0.0 5.0 1 ------- null}
- -t 0.1602 -s 4 -d 5 -p tcp -e 616 -c 0 -i 2 -a 0 -x {0.0 5.0 1 ------- null}
h -t 0.1602 -s 4 -d 5 -p tcp -e 616 -c 0 -i 2 -a 0 -x {0.0 5.0 -1 ------- null}
r -t 0.1646928 -s 4 -d 5 -p tcp -e 616 -c 0 -i 2 -a 0 -x {0.0 5.0 1 ------- null}
+ -t 0.1646928 -s 5 -d 4 -p ack -e 40 -c 0 -i 4 -a 0 -x {5.0 0.0 1 ------- null}
- -t 0.1646928 -s 5 -d 4 -p ack -e 40 -c 0 -i 4 -a 0 -x {5.0 0.0 1 ------- null}
h -t 0.1646928 -s 5 -d 4 -p ack -e 40 -c 0 -i 4 -a 0 -x {5.0 0.0 -1 ------- null}
r -t 0.165128 -s 3 -d 4 -p tcp -e 616 -c 0 -i 3 -a 0 -x {0.0 5.0 2 ------- null}
+ -t 0.165128 -s 4 -d 5 -p tcp -e 616 -c 0 -i 3 -a 0 -x {0.0 5.0 2 ------- null}
- -t 0.165128 -s 4 -d 5 -p tcp -e 616 -c 0 -i 3 -a 0 -x {0.0 5.0 2 ------- null}
h -t 0.165128 -s 4 -d 5 -p tcp -e 616 -c 0 -i 3 -a 0 -x {0.0 5.0 -1 ------- null}
r -t 0.1687248 -s 5 -d 4 -p ack -e 40 -c 0 -i 4 -a 0 -x {5.0 0.0 1 ------- null}
+ -t 0.1687248 -s 4 -d 3 -p ack -e 40 -c 0 -i 4 -a 0 -x {5.0 0.0 1 ------- null}
- -t 0.1687248 -s 4 -d 3 -p ack -e 40 -c 0 -i 4 -a 0 -x {5.0 0.0 1 ------- null}
h -t 0.1687248 -s 4 -d 3 -p ack -e 40 -c 0 -i 4 -a 0 -x {5.0 0.0 -1 ------- null}
r -t 0.1696208 -s 4 -d 5 -p tcp -e 616 -c 0 -i 3 -a 0 -x {0.0 5.0 2 ------- null}
+ -t 0.1696208 -s 5 -d 4 -p ack -e 40 -c 0 -i 5 -a 0 -x {5.0 0.0 2 ------- null}
- -t 0.1696208 -s 5 -d 4 -p ack -e 40 -c 0 -i 5 -a 0 -x {5.0 0.0 2 ------- null}
h -t 0.1696208 -s 5 -d 4 -p ack -e 40 -c 0 -i 5 -a 0 -x {5.0 0.0 -1 ------- null}
r -t 0.1736528 -s 5 -d 4 -p ack -e 40 -c 0 -i 5 -a 0 -x {5.0 0.0 2 ------- null}
+ -t 0.1736528 -s 4 -d 3 -p ack -e 40 -c 0 -i 5 -a 0 -x {5.0 0.0 2 ------- null}
- -t 0.1736528 -s 4 -d 3 -p ack -e 40 -c 0 -i 5 -a 0 -x {5.0 0.0 2 ------- null}
h -t 0.1736528 -s 4 -d 3 -p ack -e 40 -c 0 -i 5 -a 0 -x {5.0 0.0 -1 ------- null}
r -t 0.2140448 -s 4 -d 3 -p ack -e 40 -c 0 -i 4 -a 0 -x {5.0 0.0 1 ------- null}
+ -t 0.2140448 -s 3 -d 0 -p ack -e 40 -c 0 -i 4 -a 0 -x {5.0 0.0 1 ------- null}
- -t 0.2140448 -s 3 -d 0 -p ack -e 40 -c 0 -i 4 -a 0 -x {5.0 0.0 1 ------- null}
h -t 0.2140448 -s 3 -d 0 -p ack -e 40 -c 0 -i 4 -a 0 -x {5.0 0.0 -1 ------- null}
r -t 0.2163648 -s 3 -d 0 -p ack -e 40 -c 0 -i 4 -a 0 -x {5.0 0.0 1 ------- null}
+ -t 0.2163648 -s 0 -d 3 -p tcp -e 616 -c 0 -i 6 -a 0 -x {0.0 5.0 3 ------- null}
- -t 0.2163648 -s 0 -d 3 -p tcp -e 616 -c 0 -i 6 -a 0 -x {0.0 5.0 3 ------- null}
h -t 0.2163648 -s 0 -d 3 -p tcp -e 616 -c 0 -i 6 -a 0 -x {0.0 5.0 -1 ------- null}
+ -t 0.2163648 -s 0 -d 3 -p tcp -e 616 -c 0 -i 7 -a 0 -x {0.0 5.0 4 ------- null}
r -t 0.2189728 -s 4 -d 3 -p ack -e 40 -c 0 -i 5 -a 0 -x {5.0 0.0 2 ------- null}
+ -t 0.2189728 -s 3 -d 0 -p ack -e 40 -c 0 -i 5 -a 0 -x {5.0 0.0 2 ------- null}
- -t 0.2189728 -s 3 -d 0 -p ack -e 40 -c 0 -i 5 -a 0 -x {5.0 0.0 2 ------- null}
h -t 0.2189728 -s 3 -d 0 -p ack -e 40 -c 0 -i 5 -a 0 -x {5.0 0.0 -1 ------- null}
- -t 0.2212928 -s 0 -d 3 -p tcp -e 616 -c 0 -i 7 -a 0 -x {0.0 5.0 4 ------- null}
h -t 0.2212928 -s 0 -d 3 -p tcp -e 616 -c 0 -i 7 -a 0 -x {0.0 5.0 -1 ------- null}
r -t 0.2212928 -s 3 -d 0 -p ack -e 40 -c 0 -i 5 -a 0 -x {5.0 0.0 2 ------- null}
+ -t 0.2212928 -s 0 -d 3 -p tcp -e 616 -c 0 -i 8 -a 0 -x {0.0 5.0 5 ------- null}
+ -t 0.2212928 -s 0 -d 3 -p tcp -e 616 -c 0 -i 9 -a 0 -x {0.0 5.0 6 ------- null}
r -t 0.2232928 -s 0 -d 3 -p tcp -e 616 -c 0 -i 6 -a 0 -x {0.0 5.0 3 ------- null}
+ -t 0.2232928 -s 3 -d 4 -p tcp -e 616 -c 0 -i 6 -a 0 -x {0.0 5.0 3 ------- null}
- -t 0.2232928 -s 3 -d 4 -p tcp -e 616 -c 0 -i 6 -a 0 -x {0.0 5.0 3 ------- null}
h -t 0.2232928 -s 3 -d 4 -p tcp -e 616 -c 0 -i 6 -a 0 -x {0.0 5.0 -1 ------- null}
- -t 0.2262208 -s 0 -d 3 -p tcp -e 616 -c 0 -i 8 -a 0 -x {0.0 5.0 5 ------- null}
h -t 0.2262208 -s 0 -d 3 -p tcp -e 616 -c 0 -i 8 -a 0 -x {0.0 5.0 -1 ------- null}
r -t 0.2282208 -s 0 -d 3 -p tcp -e 616 -c 0 -i 7 -a 0 -x {0.0 5.0 4 ------- null}
+ -t 0.2282208 -s 3 -d 4 -p tcp -e 616 -c 0 -i 7 -a 0 -x {0.0 5.0 4 ------- null}
- -t 0.2282208 -s 3 -d 4 -p tcp -e 616 -c 0 -i 7 -a 0 -x {0.0 5.0 4 ------- null}
h -t 0.2282208 -s 3 -d 4 -p tcp -e 616 -c 0 -i 7 -a 0 -x {0.0 5.0 -1 ------- null}
- -t 0.2311488 -s 0 -d 3 -p tcp -e 616 -c 0 -i 9 -a 0 -x {0.0 5.0 6 ------- null}
h -t 0.2311488 -s 0 -d 3 -p tcp -e 616 -c 0 -i 9 -a 0 -x {0.0 5.0 -1 ------- null}
r -t 0.2331488 -s 0 -d 3 -p tcp -e 616 -c 0 -i 8 -a 0 -x {0.0 5.0 5 ------- null}
+ -t 0.2331488 -s 3 -d 4 -p tcp -e 616 -c 0 -i 8 -a 0 -x {0.0 5.0 5 ------- null}
- -t 0.2331488 -s 3 -d 4 -p tcp -e 616 -c 0 -i 8 -a 0 -x {0.0 5.0 5 ------- null}
h -t 0.2331488 -s 3 -d 4 -p tcp -e 616 -c 0 -i 8 -a 0 -x {0.0 5.0 -1 ------- null}
r -t 0.2380768 -s 0 -d 3 -p tcp -e 616 -c 0 -i 9 -a 0 -x {0.0 5.0 6 ------- null}
+ -t 0.2380768 -s 3 -d 4 -p tcp -e 616 -c 0 -i 9 -a 0 -x {0.0 5.0 6 ------- null}
- -t 0.2380768 -s 3 -d 4 -p tcp -e 616 -c 0 -i 9 -a 0 -x {0.0 5.0 6 ------- null}
h -t 0.2380768 -s 3 -d 4 -p tcp -e 616 -c 0 -i 9 -a 0 -x {0.0 5.0 -1 ------- null}
r -t 0.2732208 -s 3 -d 4 -p tcp -e 616 -c 0 -i 6 -a 0 -x {0.0 5.0 3 ------- null}
+ -t 0.2732208 -s 4 -d 5 -p tcp -e 616 -c 0 -i 6 -a 0 -x {0.0 5.0 3 ------- null}
- -t 0.2732208 -s 4 -d 5 -p tcp -e 616 -c 0 -i 6 -a 0 -x {0.0 5.0 3 ------- null}
h -t 0.2732208 -s 4 -d 5 -p tcp -e 616 -c 0 -i 6 -a 0 -x {0.0 5.0 -1 ------- null}
r -t 0.2777136 -s 4 -d 5 -p tcp -e 616 -c 0 -i 6 -a 0 -x {0.0 5.0 3 ------- null}
+ -t 0.2777136 -s 5 -d 4 -p ack -e 40 -c 0 -i 10 -a 0 -x {5.0 0.0 3 ------- null}
- -t 0.2777136 -s 5 -d 4 -p ack -e 40 -c 0 -i 10 -a 0 -x {5.0 0.0 3 ------- null}
h -t 0.2777136 -s 5 -d 4 -p ack -e 40 -c 0 -i 10 -a 0 -x {5.0 0.0 -1 ------- null}
r -t 0.2781488 -s 3 -d 4 -p tcp -e 616 -c 0 -i 7 -a 0 -x {0.0 5.0 4 ------- null}
+ -t 0.2781488 -s 4 -d 5 -p tcp -e 616 -c 0 -i 7 -a 0 -x {0.0 5.0 4 ------- null}
- -t 0.2781488 -s 4 -d 5 -p tcp -e 616 -c 0 -i 7 -a 0 -x {0.0 5.0 4 ------- null}
h -t 0.2781488 -s 4 -d 5 -p tcp -e 616 -c 0 -i 7 -a 0 -x {0.0 5.0 -1 ------- null}
r -t 0.2817456 -s 5 -d 4 -p ack -e 40 -c 0 -i 10 -a 0 -x {5.0 0.0 3 ------- null}
+ -t 0.2817456 -s 4 -d 3 -p ack -e 40 -c 0 -i 10 -a 0 -x {5.0 0.0 3 ------- null}
- -t 0.2817456 -s 4 -d 3 -p ack -e 40 -c 0 -i 10 -a 0 -x {5.0 0.0 3 ------- null}
h -t 0.2817456 -s 4 -d 3 -p ack -e 40 -c 0 -i 10 -a 0 -x {5.0 0.0 -1 ------- null}
r -t 0.2826416 -s 4 -d 5 -p tcp -e 616 -c 0 -i 7 -a 0 -x {0.0 5.0 4 ------- null}
+ -t 0.2826416 -s 5 -d 4 -p ack -e 40 -c 0 -i 11 -a 0 -x {5.0 0.0 4 ------- null}
- -t 0.2826416 -s 5 -d 4 -p ack -e 40 -c 0 -i 11 -a 0 -x {5.0 0.0 4 ------- null}
h -t 0.2826416 -s 5 -d 4 -p ack -e 40 -c 0 -i 11 -a 0 -x {5.0 0.0 -1 ------- null}
r -t 0.2830768 -s 3 -d 4 -p tcp -e 616 -c 0 -i 8 -a 0 -x {0.0 5.0 5 ------- null}
+ -t 0.2830768 -s 4 -d 5 -p tcp -e 616 -c 0 -i 8 -a 0 -x {0.0 5.0 5 ------- null}
- -t 0.2830768 -s 4 -d 5 -p tcp -e 616 -c 0 -i 8 -a 0 -x {0.0 5.0 5 ------- null}
h -t 0.2830768 -s 4 -d 5 -p tcp -e 616 -c 0 -i 8 -a 0 -x {0.0 5.0 -1 ------- null}
r -t 0.2866736 -s 5 -d 4 -p ack -e 40 -c 0 -i 11 -a 0 -x {5.0 0.0 4 ------- null}
+ -t 0.2866736 -s 4 -d 3 -p ack -e 40 -c 0 -i 11 -a 0 -x {5.0 0.0 4 ------- null}
- -t 0.2866736 -s 4 -d 3 -p ack -e 40 -c 0 -i 11 -a 0 -x {5.0 0.0 4 ------- null}
h -t 0.2866736 -s 4 -d 3 -p ack -e 40 -c 0 -i 11 -a 0 -x {5.0 0.0 -1 ------- null}
r -t 0.2875696 -s 4 -d 5 -p tcp -e 616 -c 0 -i 8 -a 0 -x {0.0 5.0 5 ------- null}
+ -t 0.2875696 -s 5 -d 4 -p ack -e 40 -c 0 -i 12 -a 0 -x {5.0 0.0 5 ------- null}
- -t 0.2875696 -s 5 -d 4 -p ack -e 40 -c 0 -i 12 -a 0 -x {5.0 0.0 5 ------- null}
h -t 0.2875696 -s 5 -d 4 -p ack -e 40 -c 0 -i 12 -a 0 -x {5.0 0.0 -1 ------- null}
r -t 0.2880048 -s 3 -d 4 -p tcp -e 616 -c 0 -i 9 -a 0 -x {0.0 5.0 6 ------- null}
+ -t 0.2880048 -s 4 -d 5 -p tcp -e 616 -c 0 -i 9 -a 0 -x {0.0 5.0 6 ------- null}
- -t 0.2880048 -s 4 -d 5 -p tcp -e 616 -c 0 -i 9 -a 0 -x {0.0 5.0 6 ------- null}
h -t 0.2880048 -s 4 -d 5 -p tcp -e 616 -c 0 -i 9 -a 0 -x {0.0 5.0 -1 ------- null}
r -t 0.2916016 -s 5 -d 4 -p ack -e 40 -c 0 -i 12 -a 0 -x {5.0 0.0 5 ------- null}
+ -t 0.2916016 -s 4 -d 3 -p ack -e 40 -c 0 -i 12 -a 0 -x {5.0 0.0 5 ------- null}
- -t 0.2916016 -s 4 -d 3 -p ack -e 40 -c 0 -i 12 -a 0 -x {5.0 0.0 5 ------- null}
h -t 0.2916016 -s 4 -d 3 -p ack -e 40 -c 0 -i 12 -a 0 -x {5.0 0.0 -1 ------- null}
r -t 0.2924976 -s 4 -d 5 -p tcp -e 616 -c 0 -i 9 -a 0 -x {0.0 5.0 6 ------- null}
+ -t 0.2924976 -s 5 -d 4 -p ack -e 40 -c 0 -i 13 -a 0 -x {5.0 0.0 6 ------- null}
- -t 0.2924976 -s 5 -d 4 -p ack -e 40 -c 0 -i 13 -a 0 -x {5.0 0.0 6 ------- null}
h -t 0.2924976 -s 5 -d 4 -p ack -e 40 -c 0 -i 13 -a 0 -x {5.0 0.0 -1 ------- null}
r -t 0.2965296 -s 5 -d 4 -p ack -e 40 -c 0 -i 13 -a 0 -x {5.0 0.0 6 ------- null}
+ -t 0.2965296 -s 4 -d 3 -p ack -e 40 -c 0 -i 13 -a 0 -x {5.0 0.0 6 ------- null}
- -t 0.2965296 -s 4 -d 3 -p ack -e 40 -c 0 -i 13 -a 0 -x {5.0 0.0 6 ------- null}
h -t 0.2965296 -s 4 -d 3 -p ack -e 40 -c 0 -i 13 -a 0 -x {5.0 0.0 -1 ------- null}
r -t 0.3270656 -s 4 -d 3 -p ack -e 40 -c 0 -i 10 -a 0 -x {5.0 0.0 3 ------- null}
+ -t 0.3270656 -s 3 -d 0 -p ack -e 40 -c 0 -i 10 -a 0 -x {5.0 0.0 3 ------- null}
- -t 0.3270656 -s 3 -d 0 -p ack -e 40 -c 0 -i 10 -a 0 -x {5.0 0.0 3 ------- null}
h -t 0.3270656 -s 3 -d 0 -p ack -e 40 -c 0 -i 10 -a 0 -x {5.0 0.0 -1 ------- null}
r -t 0.3293856 -s 3 -d 0 -p ack -e 40 -c 0 -i 10 -a 0 -x {5.0 0.0 3 ------- null}
+ -t 0.3293856 -s 0 -d 3 -p tcp -e 616 -c 0 -i 14 -a 0 -x {0.0 5.0 7 ------- null}
- -t 0.3293856 -s 0 -d 3 -p tcp -e 616 -c 0 -i 14 -a 0 -x {0.0 5.0 7 ------- null}
h -t 0.3293856 -s 0 -d 3 -p tcp -e 616 -c 0 -i 14 -a 0 -x {0.0 5.0 -1 ------- null}
+ -t 0.3293856 -s 0 -d 3 -p tcp -e 616 -c 0 -i 15 -a 0 -x {0.0 5.0 8 ------- null}
r -t 0.3319936 -s 4 -d 3 -p ack -e 40 -c 0 -i 11 -a 0 -x {5.0 0.0 4 ------- null}
+ -t 0.3319936 -s 3 -d 0 -p ack -e 40 -c 0 -i 11 -a 0 -x {5.0 0.0 4 ------- null}
- -t 0.3319936 -s 3 -d 0 -p ack -e 40 -c 0 -i 11 -a 0 -x {5.0 0.0 4 ------- null}
h -t 0.3319936 -s 3 -d 0 -p ack -e 40 -c 0 -i 11 -a 0 -x {5.0 0.0 -1 ------- null}
- -t 0.3343136 -s 0 -d 3 -p tcp -e 616 -c 0 -i 15 -a 0 -x {0.0 5.0 8 ------- null}
h -t 0.3343136 -s 0 -d 3 -p tcp -e 616 -c 0 -i 15 -a 0 -x {0.0 5.0 -1 ------- null}
r -t 0.3343136 -s 3 -d 0 -p ack -e 40 -c 0 -i 11 -a 0 -x {5.0 0.0 4 ------- null}
+ -t 0.3343136 -s 0 -d 3 -p tcp -e 616 -c 0 -i 16 -a 0 -x {0.0 5.0 9 ------- null}
+ -t 0.3343136 -s 0 -d 3 -p tcp -e 616 -c 0 -i 17 -a 0 -x {0.0 5.0 10 ------- null}
r -t 0.3363136 -s 0 -d 3 -p tcp -e 616 -c 0 -i 14 -a 0 -x {0.0 5.0 7 ------- null}
+ -t 0.3363136 -s 3 -d 4 -p tcp -e 616 -c 0 -i 14 -a 0 -x {0.0 5.0 7 ------- null}
- -t 0.3363136 -s 3 -d 4 -p tcp -e 616 -c 0 -i 14 -a 0 -x {0.0 5.0 7 ------- null}
h -t 0.3363136 -s 3 -d 4 -p tcp -e 616 -c 0 -i 14 -a 0 -x {0.0 5.0 -1 ------- null}
r -t 0.3369216 -s 4 -d 3 -p ack -e 40 -c 0 -i 12 -a 0 -x {5.0 0.0 5 ------- null}
+ -t 0.3369216 -s 3 -d 0 -p ack -e 40 -c 0 -i 12 -a 0 -x {5.0 0.0 5 ------- null}
- -t 0.3369216 -s 3 -d 0 -p ack -e 40 -c 0 -i 12 -a 0 -x {5.0 0.0 5 ------- null}
h -t 0.3369216 -s 3 -d 0 -p ack -e 40 -c 0 -i 12 -a 0 -x {5.0 0.0 -1 ------- null}
- -t 0.3392416 -s 0 -d 3 -p tcp -e 616 -c 0 -i 16 -a 0 -x {0.0 5.0 9 ------- null}
h -t 0.3392416 -s 0 -d 3 -p tcp -e 616 -c 0 -i 16 -a 0 -x {0.0 5.0 -1 ------- null}
r -t 0.3392416 -s 3 -d 0 -p ack -e 40 -c 0 -i 12 -a 0 -x {5.0 0.0 5 ------- null}
+ -t 0.3392416 -s 0 -d 3 -p tcp -e 616 -c 0 -i 18 -a 0 -x {0.0 5.0 11 ------- null}
+ -t 0.3392416 -s 0 -d 3 -p tcp -e 616 -c 0 -i 19 -a 0 -x {0.0 5.0 12 ------- null}
r -t 0.3412416 -s 0 -d 3 -p tcp -e 616 -c 0 -i 15 -a 0 -x {0.0 5.0 8 ------- null}
+ -t 0.3412416 -s 3 -d 4 -p tcp -e 616 -c 0 -i 15 -a 0 -x {0.0 5.0 8 ------- null}
- -t 0.3412416 -s 3 -d 4 -p tcp -e 616 -c 0 -i 15 -a 0 -x {0.0 5.0 8 ------- null}
h -t 0.3412416 -s 3 -d 4 -p tcp -e 616 -c 0 -i 15 -a 0 -x {0.0 5.0 -1 ------- null}
r -t 0.3418496 -s 4 -d 3 -p ack -e 40 -c 0 -i 13 -a 0 -x {5.0 0.0 6 ------- null}
+ -t 0.3418496 -s 3 -d 0 -p ack -e 40 -c 0 -i 13 -a 0 -x {5.0 0.0 6 ------- null}
- -t 0.3418496 -s 3 -d 0 -p ack -e 40 -c 0 -i 13 -a 0 -x {5.0 0.0 6 ------- null}
h -t 0.3418496 -s 3 -d 0 -p ack -e 40 -c 0 -i 13 -a 0 -x {5.0 0.0 -1 ------- null}
- -t 0.3441696 -s 0 -d 3 -p tcp -e 616 -c 0 -i 17 -a 0 -x {0.0 5.0 10 ------- null}
h -t 0.3441696 -s 0 -d 3 -p tcp -e 616 -c 0 -i 17 -a 0 -x {0.0 5.0 -1 ------- null}
r -t 0.3441696 -s 3 -d 0 -p ack -e 40 -c 0 -i 13 -a 0 -x {5.0 0.0 6 ------- null}
+ -t 0.3441696 -s 0 -d 3 -p tcp -e 616 -c 0 -i 20 -a 0 -x {0.0 5.0 13 ------- null}
+ -t 0.3441696 -s 0 -d 3 -p tcp -e 616 -c 0 -i 21 -a 0 -x {0.0 5.0 14 ------- null}
r -t 0.3461696 -s 0 -d 3 -p tcp -e 616 -c 0 -i 16 -a 0 -x {0.0 5.0 9 ------- null}
+ -t 0.3461696 -s 3 -d 4 -p tcp -e 616 -c 0 -i 16 -a 0 -x {0.0 5.0 9 ------- null}
- -t 0.3461696 -s 3 -d 4 -p tcp -e 616 -c 0 -i 16 -a 0 -x {0.0 5.0 9 ------- null}
h -t 0.3461696 -s 3 -d 4 -p tcp -e 616 -c 0 -i 16 -a 0 -x {0.0 5.0 -1 ------- null}
- -t 0.3490976 -s 0 -d 3 -p tcp -e 616 -c 0 -i 18 -a 0 -x {0.0 5.0 11 ------- null}
h -t 0.3490976 -s 0 -d 3 -p tcp -e 616 -c 0 -i 18 -a 0 -x {0.0 5.0 -1 ------- null}
r -t 0.3510976 -s 0 -d 3 -p tcp -e 616 -c 0 -i 17 -a 0 -x {0.0 5.0 10 ------- null}
+ -t 0.3510976 -s 3 -d 4 -p tcp -e 616 -c 0 -i 17 -a 0 -x {0.0 5.0 10 ------- null}
- -t 0.3510976 -s 3 -d 4 -p tcp -e 616 -c 0 -i 17 -a 0 -x {0.0 5.0 10 ------- null}
h -t 0.3510976 -s 3 -d 4 -p tcp -e 616 -c 0 -i 17 -a 0 -x {0.0 5.0 -1 ------- null}
- -t 0.3540256 -s 0 -d 3 -p tcp -e 616 -c 0 -i 19 -a 0 -x {0.0 5.0 12 ------- null}
h -t 0.3540256 -s 0 -d 3 -p tcp -e 616 -c 0 -i 19 -a 0 -x {0.0 5.0 -1 ------- null}
r -t 0.3560256 -s 0 -d 3 -p tcp -e 616 -c 0 -i 18 -a 0 -x {0.0 5.0 11 ------- null}
+ -t 0.3560256 -s 3 -d 4 -p tcp -e 616 -c 0 -i 18 -a 0 -x {0.0 5.0 11 ------- null}
- -t 0.3560256 -s 3 -d 4 -p tcp -e 616 -c 0 -i 18 -a 0 -x {0.0 5.0 11 ------- null}
h -t 0.3560256 -s 3 -d 4 -p tcp -e 616 -c 0 -i 18 -a 0 -x {0.0 5.0 -1 ------- null}
- -t 0.3589536 -s 0 -d 3 -p tcp -e 616 -c 0 -i 20 -a 0 -x {0.0 5.0 13 ------- null}
h -t 0.3589536 -s 0 -d 3 -p tcp -e 616 -c 0 -i 20 -a 0 -x {0.0 5.0 -1 ------- null}
r -t 0.3609536 -s 0 -d 3 -p tcp -e 616 -c 0 -i 19 -a 0 -x {0.0 5.0 12 ------- null}
+ -t 0.3609536 -s 3 -d 4 -p tcp -e 616 -c 0 -i 19 -a 0 -x {0.0 5.0 12 ------- null}
- -t 0.3609536 -s 3 -d 4 -p tcp -e 616 -c 0 -i 19 -a 0 -x {0.0 5.0 12 ------- null}
h -t 0.3609536 -s 3 -d 4 -p tcp -e 616 -c 0 -i 19 -a 0 -x {0.0 5.0 -1 ------- null}
- -t 0.3638816 -s 0 -d 3 -p tcp -e 616 -c 0 -i 21 -a 0 -x {0.0 5.0 14 ------- null}
h -t 0.3638816 -s 0 -d 3 -p tcp -e 616 -c 0 -i 21 -a 0 -x {0.0 5.0 -1 ------- null}
r -t 0.3658816 -s 0 -d 3 -p tcp -e 616 -c 0 -i 20 -a 0 -x {0.0 5.0 13 ------- null}
+ -t 0.3658816 -s 3 -d 4 -p tcp -e 616 -c 0 -i 20 -a 0 -x {0.0 5.0 13 ------- null}
- -t 0.3658816 -s 3 -d 4 -p tcp -e 616 -c 0 -i 20 -a 0 -x {0.0 5.0 13 ------- null}
h -t 0.3658816 -s 3 -d 4 -p tcp -e 616 -c 0 -i 20 -a 0 -x {0.0 5.0 -1 ------- null}
r -t 0.3708096 -s 0 -d 3 -p tcp -e 616 -c 0 -i 21 -a 0 -x {0.0 5.0 14 ------- null}
+ -t 0.3708096 -s 3 -d 4 -p tcp -e 616 -c 0 -i 21 -a 0 -x {0.0 5.0 14 ------- null}
- -t 0.3708096 -s 3 -d 4 -p tcp -e 616 -c 0 -i 21 -a 0 -x {0.0 5.0 14 ------- null}
h -t 0.3708096 -s 3 -d 4 -p tcp -e 616 -c 0 -i 21 -a 0 -x {0.0 5.0 -1 ------- null}
r -t 0.3862416 -s 3 -d 4 -p tcp -e 616 -c 0 -i 14 -a 0 -x {0.0 5.0 7 ------- null}
+ -t 0.3862416 -s 4 -d 5 -p tcp -e 616 -c 0 -i 14 -a 0 -x {0.0 5.0 7 ------- null}
- -t 0.3862416 -s 4 -d 5 -p tcp -e 616 -c 0 -i 14 -a 0 -x {0.0 5.0 7 ------- null}
h -t 0.3862416 -s 4 -d 5 -p tcp -e 616 -c 0 -i 14 -a 0 -x {0.0 5.0 -1 ------- null}
r -t 0.3907344 -s 4 -d 5 -p tcp -e 616 -c 0 -i 14 -a 0 -x {0.0 5.0 7 ------- null}
+ -t 0.3907344 -s 5 -d 4 -p ack -e 40 -c 0 -i 22 -a 0 -x {5.0 0.0 7 ------- null}
- -t 0.3907344 -s 5 -d 4 -p ack -e 40 -c 0 -i 22 -a 0 -x {5.0 0.0 7 ------- null}
h -t 0.3907344 -s 5 -d 4 -p ack -e 40 -c 0 -i 22 -a 0 -x {5.0 0.0 -1 ------- null}
r -t 0.3911696 -s 3 -d 4 -p tcp -e 616 -c 0 -i 15 -a 0 -x {0.0 5.0 8 ------- null}
+ -t 0.3911696 -s 4 -d 5 -p tcp -e 616 -c 0 -i 15 -a 0 -x {0.0 5.0 8 ------- null}
- -t 0.3911696 -s 4 -d 5 -p tcp -e 616 -c 0 -i 15 -a 0 -x {0.0 5.0 8 ------- null}
h -t 0.3911696 -s 4 -d 5 -p tcp -e 616 -c 0 -i 15 -a 0 -x {0.0 5.0 -1 ------- null}
r -t 0.3947664 -s 5 -d 4 -p ack -e 40 -c 0 -i 22 -a 0 -x {5.0 0.0 7 ------- null}
+ -t 0.3947664 -s 4 -d 3 -p ack -e 40 -c 0 -i 22 -a 0 -x {5.0 0.0 7 ------- null}
- -t 0.3947664 -s 4 -d 3 -p ack -e 40 -c 0 -i 22 -a 0 -x {5.0 0.0 7 ------- null}
h -t 0.3947664 -s 4 -d 3 -p ack -e 40 -c 0 -i 22 -a 0 -x {5.0 0.0 -1 ------- null}
r -t 0.3956624 -s 4 -d 5 -p tcp -e 616 -c 0 -i 15 -a 0 -x {0.0 5.0 8 ------- null}
+ -t 0.3956624 -s 5 -d 4 -p ack -e 40 -c 0 -i 23 -a 0 -x {5.0 0.0 8 ------- null}
- -t 0.3956624 -s 5 -d 4 -p ack -e 40 -c 0 -i 23 -a 0 -x {5.0 0.0 8 ------- null}
h -t 0.3956624 -s 5 -d 4 -p ack -e 40 -c 0 -i 23 -a 0 -x {5.0 0.0 -1 ------- null}
r -t 0.3960976 -s 3 -d 4 -p tcp -e 616 -c 0 -i 16 -a 0 -x {0.0 5.0 9 ------- null}
+ -t 0.3960976 -s 4 -d 5 -p tcp -e 616 -c 0 -i 16 -a 0 -x {0.0 5.0 9 ------- null}
- -t 0.3960976 -s 4 -d 5 -p tcp -e 616 -c 0 -i 16 -a 0 -x {0.0 5.0 9 ------- null}
h -t 0.3960976 -s 4 -d 5 -p tcp -e 616 -c 0 -i 16 -a 0 -x {0.0 5.0 -1 ------- null}
r -t 0.3996944 -s 5 -d 4 -p ack -e 40 -c 0 -i 23 -a 0 -x {5.0 0.0 8 ------- null}
+ -t 0.3996944 -s 4 -d 3 -p ack -e 40 -c 0 -i 23 -a 0 -x {5.0 0.0 8 ------- null}
- -t 0.3996944 -s 4 -d 3 -p ack -e 40 -c 0 -i 23 -a 0 -x {5.0 0.0 8 ------- null}
h -t 0.3996944 -s 4 -d 3 -p ack -e 40 -c 0 -i 23 -a 0 -x {5.0 0.0 -1 ------- null}
r -t 0.4005904 -s 4 -d 5 -p tcp -e 616 -c 0 -i 16 -a 0 -x {0.0 5.0 9 ------- null}
+ -t 0.4005904 -s 5 -d 4 -p ack -e 40 -c 0 -i 24 -a 0 -x {5.0 0.0 9 ------- null}
- -t 0.4005904 -s 5 -d 4 -p ack -e 40 -c 0 -i 24 -a 0 -x {5.0 0.0 9 ------- null}
h -t 0.4005904 -s 5 -d 4 -p ack -e 40 -c 0 -i 24 -a 0 -x {5.0 0.0 -1 ------- null}
r -t 0.4010256 -s 3 -d 4 -p tcp -e 616 -c 0 -i 17 -a 0 -x {0.0 5.0 10 ------- null}
+ -t 0.4010256 -s 4 -d 5 -p tcp -e 616 -c 0 -i 17 -a 0 -x {0.0 5.0 10 ------- null}
- -t 0.4010256 -s 4 -d 5 -p tcp -e 616 -c 0 -i 17 -a 0 -x {0.0 5.0 10 ------- null}
h -t 0.4010256 -s 4 -d 5 -p tcp -e 616 -c 0 -i 17 -a 0 -x {0.0 5.0 -1 ------- null}
r -t 0.4046224 -s 5 -d 4 -p ack -e 40 -c 0 -i 24 -a 0 -x {5.0 0.0 9 ------- null}
+ -t 0.4046224 -s 4 -d 3 -p ack -e 40 -c 0 -i 24 -a 0 -x {5.0 0.0 9 ------- null}
- -t 0.4046224 -s 4 -d 3 -p ack -e 40 -c 0 -i 24 -a 0 -x {5.0 0.0 9 ------- null}
h -t 0.4046224 -s 4 -d 3 -p ack -e 40 -c 0 -i 24 -a 0 -x {5.0 0.0 -1 ------- null}
r -t 0.4055184 -s 4 -d 5 -p tcp -e 616 -c 0 -i 17 -a 0 -x {0.0 5.0 10 ------- null}
+ -t 0.4055184 -s 5 -d 4 -p ack -e 40 -c 0 -i 25 -a 0 -x {5.0 0.0 10 ------- null}
- -t 0.4055184 -s 5 -d 4 -p ack -e 40 -c 0 -i 25 -a 0 -x {5.0 0.0 10 ------- null}
h -t 0.4055184 -s 5 -d 4 -p ack -e 40 -c 0 -i 25 -a 0 -x {5.0 0.0 -1 ------- null}
r -t 0.4059536 -s 3 -d 4 -p tcp -e 616 -c 0 -i 18 -a 0 -x {0.0 5.0 11 ------- null}
+ -t 0.4059536 -s 4 -d 5 -p tcp -e 616 -c 0 -i 18 -a 0 -x {0.0 5.0 11 ------- null}
- -t 0.4059536 -s 4 -d 5 -p tcp -e 616 -c 0 -i 18 -a 0 -x {0.0 5.0 11 ------- null}
h -t 0.4059536 -s 4 -d 5 -p tcp -e 616 -c 0 -i 18 -a 0 -x {0.0 5.0 -1 ------- null}
r -t 0.4095504 -s 5 -d 4 -p ack -e 40 -c 0 -i 25 -a 0 -x {5.0 0.0 10 ------- null}
+ -t 0.4095504 -s 4 -d 3 -p ack -e 40 -c 0 -i 25 -a 0 -x {5.0 0.0 10 ------- null}
- -t 0.4095504 -s 4 -d 3 -p ack -e 40 -c 0 -i 25 -a 0 -x {5.0 0.0 10 ------- null}
h -t 0.4095504 -s 4 -d 3 -p ack -e 40 -c 0 -i 25 -a 0 -x {5.0 0.0 -1 ------- null}
r -t 0.4104464 -s 4 -d 5 -p tcp -e 616 -c 0 -i 18 -a 0 -x {0.0 5.0 11 ------- null}
+ -t 0.4104464 -s 5 -d 4 -p ack -e 40 -c 0 -i 26 -a 0 -x {5.0 0.0 11 ------- null}
- -t 0.4104464 -s 5 -d 4 -p ack -e 40 -c 0 -i 26 -a 0 -x {5.0 0.0 11 ------- null}
h -t 0.4104464 -s 5 -d 4 -p ack -e 40 -c 0 -i 26 -a 0 -x {5.0 0.0 -1 ------- null}
r -t 0.4108816 -s 3 -d 4 -p tcp -e 616 -c 0 -i 19 -a 0 -x {0.0 5.0 12 ------- null}
+ -t 0.4108816 -s 4 -d 5 -p tcp -e 616 -c 0 -i 19 -a 0 -x {0.0 5.0 12 ------- null}
- -t 0.4108816 -s 4 -d 5 -p tcp -e 616 -c 0 -i 19 -a 0 -x {0.0 5.0 12 ------- null}
h -t 0.4108816 -s 4 -d 5 -p tcp -e 616 -c 0 -i 19 -a 0 -x {0.0 5.0 -1 ------- null}
r -t 0.4144784 -s 5 -d 4 -p ack -e 40 -c 0 -i 26 -a 0 -x {5.0 0.0 11 ------- null}
+ -t 0.4144784 -s 4 -d 3 -p ack -e 40 -c 0 -i 26 -a 0 -x {5.0 0.0 11 ------- null}
- -t 0.4144784 -s 4 -d 3 -p ack -e 40 -c 0 -i 26 -a 0 -x {5.0 0.0 11 ------- null}
h -t 0.4144784 -s 4 -d 3 -p ack -e 40 -c 0 -i 26 -a 0 -x {5.0 0.0 -1 ------- null}
r -t 0.4153744 -s 4 -d 5 -p tcp -e 616 -c 0 -i 19 -a 0 -x {0.0 5.0 12 ------- null}
+ -t 0.4153744 -s 5 -d 4 -p ack -e 40 -c 0 -i 27 -a 0 -x {5.0 0.0 12 ------- null}
- -t 0.4153744 -s 5 -d 4 -p ack -e 40 -c 0 -i 27 -a 0 -x {5.0 0.0 12 ------- null}
h -t 0.4153744 -s 5 -d 4 -p ack -e 40 -c 0 -i 27 -a 0 -x {5.0 0.0 -1 ------- null}
r -t 0.4158096 -s 3 -d 4 -p tcp -e 616 -c 0 -i 20 -a 0 -x {0.0 5.0 13 ------- null}
+ -t 0.4158096 -s 4 -d 5 -p tcp -e 616 -c 0 -i 20 -a 0 -x {0.0 5.0 13 ------- null}
- -t 0.4158096 -s 4 -d 5 -p tcp -e 616 -c 0 -i 20 -a 0 -x {0.0 5.0 13 ------- null}
h -t 0.4158096 -s 4 -d 5 -p tcp -e 616 -c 0 -i 20 -a 0 -x {0.0 5.0 -1 ------- null}
r -t 0.4194064 -s 5 -d 4 -p ack -e 40 -c 0 -i 27 -a 0 -x {5.0 0.0 12 ------- null}
+ -t 0.4194064 -s 4 -d 3 -p ack -e 40 -c 0 -i 27 -a 0 -x {5.0 0.0 12 ------- null}
- -t 0.4194064 -s 4 -d 3 -p ack -e 40 -c 0 -i 27 -a 0 -x {5.0 0.0 12 ------- null}
h -t 0.4194064 -s 4 -d 3 -p ack -e 40 -c 0 -i 27 -a 0 -x {5.0 0.0 -1 ------- null}
r -t 0.4203024 -s 4 -d 5 -p tcp -e 616 -c 0 -i 20 -a 0 -x {0.0 5.0 13 ------- null}
+ -t 0.4203024 -s 5 -d 4 -p ack -e 40 -c 0 -i 28 -a 0 -x {5.0 0.0 13 ------- null}
- -t 0.4203024 -s 5 -d 4 -p ack -e 40 -c 0 -i 28 -a 0 -x {5.0 0.0 13 ------- null}
h -t 0.4203024 -s 5 -d 4 -p ack -e 40 -c 0 -i 28 -a 0 -x {5.0 0.0 -1 ------- null}
r -t 0.4207376 -s 3 -d 4 -p tcp -e 616 -c 0 -i 21 -a 0 -x {0.0 5.0 14 ------- null}
+ -t 0.4207376 -s 4 -d 5 -p tcp -e 616 -c 0 -i 21 -a 0 -x {0.0 5.0 14 ------- null}
- -t 0.4207376 -s 4 -d 5 -p tcp -e 616 -c 0 -i 21 -a 0 -x {0.0 5.0 14 ------- null}
h -t 0.4207376 -s 4 -d 5 -p tcp -e 616 -c 0 -i 21 -a 0 -x {0.0 5.0 -1 ------- null}
r -t 0.4243344 -s 5 -d 4 -p ack -e 40 -c 0 -i 28 -a 0 -x {5.0 0.0 13 ------- null}
+ -t 0.4243344 -s 4 -d 3 -p ack -e 40 -c 0 -i 28 -a 0 -x {5.0 0.0 13 ------- null}
- -t 0.4243344 -s 4 -d 3 -p ack -e 40 -c 0 -i 28 -a 0 -x {5.0 0.0 13 ------- null}
h -t 0.4243344 -s 4 -d 3 -p ack -e 40 -c 0 -i 28 -a 0 -x {5.0 0.0 -1 ------- null}
r -t 0.4252304 -s 4 -d 5 -p tcp -e 616 -c 0 -i 21 -a 0 -x {0.0 5.0 14 ------- null}
+ -t 0.4252304 -s 5 -d 4 -p ack -e 40 -c 0 -i 29 -a 0 -x {5.0 0.0 14 ------- null}
- -t 0.4252304 -s 5 -d 4 -p ack -e 40 -c 0 -i 29 -a 0 -x {5.0 0.0 14 ------- null}
h -t 0.4252304 -s 5 -d 4 -p ack -e 40 -c 0 -i 29 -a 0 -x {5.0 0.0 -1 ------- null}
r -t 0.4292624 -s 5 -d 4 -p ack -e 40 -c 0 -i 29 -a 0 -x {5.0 0.0 14 ------- null}
+ -t 0.4292624 -s 4 -d 3 -p ack -e 40 -c 0 -i 29 -a 0 -x {5.0 0.0 14 ------- null}
- -t 0.4292624 -s 4 -d 3 -p ack -e 40 -c 0 -i 29 -a 0 -x {5.0 0.0 14 ------- null}
h -t 0.4292624 -s 4 -d 3 -p ack -e 40 -c 0 -i 29 -a 0 -x {5.0 0.0 -1 ------- null}
r -t 0.4400864 -s 4 -d 3 -p ack -e 40 -c 0 -i 22 -a 0 -x {5.0 0.0 7 ------- null}
+ -t 0.4400864 -s 3 -d 0 -p ack -e 40 -c 0 -i 22 -a 0 -x {5.0 0.0 7 ------- null}
- -t 0.4400864 -s 3 -d 0 -p ack -e 40 -c 0 -i 22 -a 0 -x {5.0 0.0 7 ------- null}
h -t 0.4400864 -s 3 -d 0 -p ack -e 40 -c 0 -i 22 -a 0 -x {5.0 0.0 -1 ------- null}
r -t 0.4424064 -s 3 -d 0 -p ack -e 40 -c 0 -i 22 -a 0 -x {5.0 0.0 7 ------- null}
+ -t 0.4424064 -s 0 -d 3 -p tcp -e 616 -c 0 -i 30 -a 0 -x {0.0 5.0 15 ------- null}
- -t 0.4424064 -s 0 -d 3 -p tcp -e 616 -c 0 -i 30 -a 0 -x {0.0 5.0 15 ------- null}
h -t 0.4424064 -s 0 -d 3 -p tcp -e 616 -c 0 -i 30 -a 0 -x {0.0 5.0 -1 ------- null}
+ -t 0.4424064 -s 0 -d 3 -p tcp -e 616 -c 0 -i 31 -a 0 -x {0.0 5.0 16 ------- null}
r -t 0.4450144 -s 4 -d 3 -p ack -e 40 -c 0 -i 23 -a 0 -x {5.0 0.0 8 ------- null}
+ -t 0.4450144 -s 3 -d 0 -p ack -e 40 -c 0 -i 23 -a 0 -x {5.0 0.0 8 ------- null}
- -t 0.4450144 -s 3 -d 0 -p ack -e 40 -c 0 -i 23 -a 0 -x {5.0 0.0 8 ------- null}
h -t 0.4450144 -s 3 -d 0 -p ack -e 40 -c 0 -i 23 -a 0 -x {5.0 0.0 -1 ------- null}
r -t 0.4473344 -s 3 -d 0 -p ack -e 40 -c 0 -i 23 -a 0 -x {5.0 0.0 8 ------- null}
+ -t 0.4473344 -s 0 -d 3 -p tcp -e 616 -c 0 -i 32 -a 0 -x {0.0 5.0 17 ------- null}
+ -t 0.4473344 -s 0 -d 3 -p tcp -e 616 -c 0 -i 33 -a 0 -x {0.0 5.0 18 ------- null}
- -t 0.4473344 -s 0 -d 3 -p tcp -e 616 -c 0 -i 31 -a 0 -x {0.0 5.0 16 ------- null}
h -t 0.4473344 -s 0 -d 3 -p tcp -e 616 -c 0 -i 31 -a 0 -x {0.0 5.0 -1 ------- null}
r -t 0.4493344 -s 0 -d 3 -p tcp -e 616 -c 0 -i 30 -a 0 -x {0.0 5.0 15 ------- null}
+ -t 0.4493344 -s 3 -d 4 -p tcp -e 616 -c 0 -i 30 -a 0 -x {0.0 5.0 15 ------- null}
- -t 0.4493344 -s 3 -d 4 -p tcp -e 616 -c 0 -i 30 -a 0 -x {0.0 5.0 15 ------- null}
h -t 0.4493344 -s 3 -d 4 -p tcp -e 616 -c 0 -i 30 -a 0 -x {0.0 5.0 -1 ------- null}
r -t 0.4499424 -s 4 -d 3 -p ack -e 40 -c 0 -i 24 -a 0 -x {5.0 0.0 9 ------- null}
+ -t 0.4499424 -s 3 -d 0 -p ack -e 40 -c 0 -i 24 -a 0 -x {5.0 0.0 9 ------- null}
- -t 0.4499424 -s 3 -d 0 -p ack -e 40 -c 0 -i 24 -a 0 -x {5.0 0.0 9 ------- null}
h -t 0.4499424 -s 3 -d 0 -p ack -e 40 -c 0 -i 24 -a 0 -x {5.0 0.0 -1 ------- null}
- -t 0.4522624 -s 0 -d 3 -p tcp -e 616 -c 0 -i 32 -a 0 -x {0.0 5.0 17 ------- null}
h -t 0.4522624 -s 0 -d 3 -p tcp -e 616 -c 0 -i 32 -a 0 -x {0.0 5.0 -1 ------- null}
r -t 0.4522624 -s 3 -d 0 -p ack -e 40 -c 0 -i 24 -a 0 -x {5.0 0.0 9 ------- null}
+ -t 0.4522624 -s 0 -d 3 -p tcp -e 616 -c 0 -i 34 -a 0 -x {0.0 5.0 19 ------- null}