+ 0 0 3 tcp 40 ------- 0 0.0 5.0 0 0
- 0 0 3 tcp 40 ------- 0 0.0 5.0 0 0
r 0.00232 0 3 tcp 40 ------- 0 0.0 5.0 0 0
+ 0.00232 3 4 tcp 40 ------- 0 0.0 5.0 0 0
- 0.00232 3 4 tcp 40 ------- 0 0.0 5.0 0 0
r 0.04764 3 4 tcp 40 ------- 0 0.0 5.0 0 0
+ 0.04764 4 5 tcp 40 ------- 0 0.0 5.0 0 0
- 0.04764 4 5 tcp 40 ------- 0 0.0 5.0 0 0
r 0.051672 4 5 tcp 40 ------- 0 0.0 5.0 0 0
+ 0.051672 5 4 ack 40 ------- 0 5.0 0.0 0 1
- 0.051672 5 4 ack 40 ------- 0 5.0 0.0 0 1
r 0.055704 5 4 ack 40 ------- 0 5.0 0.0 0 1
+ 0.055704 4 3 ack 40 ------- 0 5.0 0.0 0 1
- 0.055704 4 3 ack 40 ------- 0 5.0 0.0 0 1
r 0.101024 4 3 ack 40 ------- 0 5.0 0.0 0 1
+ 0.101024 3 0 ack 40 ------- 0 5.0 0.0 0 1
- 0.101024 3 0 ack 40 ------- 0 5.0 0.0 0 1
r 0.103344 3 0 ack 40 ------- 0 5.0 0.0 0 1
+ 0.103344 0 3 tcp 616 ------- 0 0.0 5.0 1 2
- 0.103344 0 3 tcp 616 ------- 0 0.0 5.0 1 2
+ 0.103344 0 3 tcp 616 ------- 0 0.0 5.0 2 3
- 0.108272 0 3 tcp 616 ------- 0 0.0 5.0 2 3
r 0.110272 0 3 tcp 616 ------- 0 0.0 5.0 1 2
+ 0.110272 3 4 tcp 616 ------- 0 0.0 5.0 1 2
- 0.110272 3 4 tcp 616 ------- 0 0.0 5.0 1 2
r 0.1152 0 3 tcp 616 ------- 0 0.0 5.0 2 3
+ 0.1152 3 4 tcp 616 ------- 0 0.0 5.0 2 3
- 0.1152 3 4 tcp 616 ------- 0 0.0 5.0 2 3
r 0.1602 3 4 tcp 616 ------- 0 0.0 5.0 1 2
+ 0.1602 4 5 tcp 616 ------- 0 0.0 5.0 1 2
- 0.1602 4 5 tcp 616 ------- 0 0.0 5.0 1 2
r 0.164693 4 5 tcp 616 ------- 0 0.0 5.0 1 2
+ 0.164693 5 4 ack 40 ------- 0 5.0 0.0 1 4
- 0.164693 5 4 ack 40 ------- 0 5.0 0.0 1 4
r 0.165128 3 4 tcp 616 ------- 0 0.0 5.0 2 3
+ 0.165128 4 5 tcp 616 ------- 0 0.0 5.0 2 3
- 0.165128 4 5 tcp 616 ------- 0 0.0 5.0 2 3
r 0.168725 5 4 ack 40 ------- 0 5.0 0.0 1 4
+ 0.168725 4 3 ack 40 ------- 0 5.0 0.0 1 4
- 0.168725 4 3 ack 40 ------- 0 5.0 0.0 1 4
r 0.169621 4 5 tcp 616 ------- 0 0.0 5.0 2 3
+ 0.169621 5 4 ack 40 ------- 0 5.0 0.0 2 5
- 0.169621 5 4 ack 40 ------- 0 5.0 0.0 2 5
r 0.173653 5 4 ack 40 ------- 0 5.0 0.0 2 5
+ 0.173653 4 3 ack 40 ------- 0 5.0 0.0 2 5
- 0.173653 4 3 ack 40 ------- 0 5.0 0.0 2 5
r 0.214045 4 3 ack 40 ------- 0 5.0 0.0 1 4
+ 0.214045 3 0 ack 40 ------- 0 5.0 0.0 1 4
- 0.214045 3 0 ack 40 ------- 0 5.0 0.0 1 4
r 0.216365 3 0 ack 40 ------- 0 5.0 0.0 1 4
+ 0.216365 0 3 tcp 616 ------- 0 0.0 5.0 3 6
- 0.216365 0 3 tcp 616 ------- 0 0.0 5.0 3 6
+ 0.216365 0 3 tcp 616 ------- 0 0.0 5.0 4 7
r 0.218973 4 3 ack 40 ------- 0 5.0 0.0 2 5
+ 0.218973 3 0 ack 40 ------- 0 5.0 0.0 2 5
- 0.218973 3 0 ack 40 ------- 0 5.0 0.0 2 5
- 0.221293 0 3 tcp 616 ------- 0 0.0 5.0 4 7
r 0.221293 3 0 ack 40 ------- 0 5.0 0.0 2 5
+ 0.221293 0 3 tcp 616 ------- 0 0.0 5.0 5 8
+ 0.221293 0 3 tcp 616 ------- 0 0.0 5.0 6 9
r 0.223293 0 3 tcp 616 ------- 0 0.0 5.0 3 6
+ 0.223293 3 4 tcp 616 ------- 0 0.0 5.0 3 6
- 0.223293 3 4 tcp 616 ------- 0 0.0 5.0 3 6
- 0.226221 0 3 tcp 616 ------- 0 0.0 5.0 5 8
r 0.228221 0 3 tcp 616 ------- 0 0.0 5.0 4 7
+ 0.228221 3 4 tcp 616 ------- 0 0.0 5.0 4 7
- 0.228221 3 4 tcp 616 ------- 0 0.0 5.0 4 7
- 0.231149 0 3 tcp 616 ------- 0 0.0 5.0 6 9
r 0.233149 0 3 tcp 616 ------- 0 0.0 5.0 5 8
+ 0.233149 3 4 tcp 616 ------- 0 0.0 5.0 5 8
- 0.233149 3 4 tcp 616 ------- 0 0.0 5.0 5 8
r 0.238077 0 3 tcp 616 ------- 0 0.0 5.0 6 9
+ 0.238077 3 4 tcp 616 ------- 0 0.0 5.0 6 9
- 0.238077 3 4 tcp 616 ------- 0 0.0 5.0 6 9
r 0.273221 3 4 tcp 616 ------- 0 0.0 5.0 3 6
+ 0.273221 4 5 tcp 616 ------- 0 0.0 5.0 3 6
- 0.273221 4 5 tcp 616 ------- 0 0.0 5.0 3 6
r 0.277714 4 5 tcp 616 ------- 0 0.0 5.0 3 6
+ 0.277714 5 4 ack 40 ------- 0 5.0 0.0 3 10
- 0.277714 5 4 ack 40 ------- 0 5.0 0.0 3 10
r 0.278149 3 4 tcp 616 ------- 0 0.0 5.0 4 7
+ 0.278149 4 5 tcp 616 ------- 0 0.0 5.0 4 7
- 0.278149 4 5 tcp 616 ------- 0 0.0 5.0 4 7
r 0.281746 5 4 ack 40 ------- 0 5.0 0.0 3 10
+ 0.281746 4 3 ack 40 ------- 0 5.0 0.0 3 10
- 0.281746 4 3 ack 40 ------- 0 5.0 0.0 3 10
r 0.282642 4 5 tcp 616 ------- 0 0.0 5.0 4 7
+ 0.282642 5 4 ack 40 ------- 0 5.0 0.0 4 11
- 0.282642 5 4 ack 40 ------- 0 5.0 0.0 4 11
r 0.283077 3 4 tcp 616 ------- 0 0.0 5.0 5 8
+ 0.283077 4 5 tcp 616 ------- 0 0.0 5.0 5 8
- 0.283077 4 5 tcp 616 ------- 0 0.0 5.0 5 8
r 0.286674 5 4 ack 40 ------- 0 5.0 0.0 4 11
+ 0.286674 4 3 ack 40 ------- 0 5.0 0.0 4 11
- 0.286674 4 3 ack 40 ------- 0 5.0 0.0 4 11
r 0.28757 4 5 tcp 616 ------- 0 0.0 5.0 5 8
+ 0.28757 5 4 ack 40 ------- 0 5.0 0.0 5 12
- 0.28757 5 4 ack 40 ------- 0 5.0 0.0 5 12
r 0.288005 3 4 tcp 616 ------- 0 0.0 5.0 6 9
+ 0.288005 4 5 tcp 616 ------- 0 0.0 5.0 6 9
- 0.288005 4 5 tcp 616 ------- 0 0.0 5.0 6 9
r 0.291602 5 4 ack 40 ------- 0 5.0 0.0 5 12
+ 0.291602 4 3 ack 40 ------- 0 5.0 0.0 5 12
- 0.291602 4 3 ack 40 ------- 0 5.0 0.0 5 12
r 0.292498 4 5 tcp 616 ------- 0 0.0 5.0 6 9
+ 0.292498 5 4 ack 40 ------- 0 5.0 0.0 6 13
- 0.292498 5 4 ack 40 ------- 0 5.0 0.0 6 13
r 0.29653 5 4 ack 40 ------- 0 5.0 0.0 6 13
+ 0.29653 4 3 ack 40 ------- 0 5.0 0.0 6 13
- 0.29653 4 3 ack 40 ------- 0 5.0 0.0 6 13
r 0.327066 4 3 ack 40 ------- 0 5.0 0.0 3 10
+ 0.327066 3 0 ack 40 ------- 0 5.0 0.0 3 10
- 0.327066 3 0 ack 40 ------- 0 5.0 0.0 3 10
r 0.329386 3 0 ack 40 ------- 0 5.0 0.0 3 10
+ 0.329386 0 3 tcp 616 ------- 0 0.0 5.0 7 14
- 0.329386 0 3 tcp 616 ------- 0 0.0 5.0 7 14
+ 0.329386 0 3 tcp 616 ------- 0 0.0 5.0 8 15
r 0.331994 4 3 ack 40 ------- 0 5.0 0.0 4 11
+ 0.331994 3 0 ack 40 ------- 0 5.0 0.0 4 11
- 0.331994 3 0 ack 40 ------- 0 5.0 0.0 4 11
- 0.334314 0 3 tcp 616 ------- 0 0.0 5.0 8 15
r 0.334314 3 0 ack 40 ------- 0 5.0 0.0 4 11
+ 0.334314 0 3 tcp 616 ------- 0 0.0 5.0 9 16
+ 0.334314 0 3 tcp 616 ------- 0 0.0 5.0 10 17
r 0.336314 0 3 tcp 616 ------- 0 0.0 5.0 7 14
+ 0.336314 3 4 tcp 616 ------- 0 0.0 5.0 7 14
- 0.336314 3 4 tcp 616 ------- 0 0.0 5.0 7 14
r 0.336922 4 3 ack 40 ------- 0 5.0 0.0 5 12
+ 0.336922 3 0 ack 40 ------- 0 5.0 0.0 5 12
- 0.336922 3 0 ack 40 ------- 0 5.0 0.0 5 12
- 0.339242 0 3 tcp 616 ------- 0 0.0 5.0 9 16
r 0.339242 3 0 ack 40 ------- 0 5.0 0.0 5 12
+ 0.339242 0 3 tcp 616 ------- 0 0.0 5.0 11 18
+ 0.339242 0 3 tcp 616 ------- 0 0.0 5.0 12 19
r 0.341242 0 3 tcp 616 ------- 0 0.0 5.0 8 15
+ 0.341242 3 4 tcp 616 ------- 0 0.0 5.0 8 15
- 0.341242 3 4 tcp 616 ------- 0 0.0 5.0 8 15
r 0.34185 4 3 ack 40 ------- 0 5.0 0.0 6 13
+ 0.34185 3 0 ack 40 ------- 0 5.0 0.0 6 13
- 0.34185 3 0 ack 40 ------- 0 5.0 0.0 6 13
- 0.34417 0 3 tcp 616 ------- 0 0.0 5.0 10 17
r 0.34417 3 0 ack 40 ------- 0 5.0 0.0 6 13
+ 0.34417 0 3 tcp 616 ------- 0 0.0 5.0 13 20
+ 0.34417 0 3 tcp 616 ------- 0 0.0 5.0 14 21
r 0.34617 0 3 tcp 616 ------- 0 0.0 5.0 9 16
+ 0.34617 3 4 tcp 616 ------- 0 0.0 5.0 9 16
- 0.34617 3 4 tcp 616 ------- 0 0.0 5.0 9 16
- 0.349098 0 3 tcp 616 ------- 0 0.0 5.0 11 18
r 0.351098 0 3 tcp 616 ------- 0 0.0 5.0 10 17
+ 0.351098 3 4 tcp 616 ------- 0 0.0 5.0 10 17
- 0.351098 3 4 tcp 616 ------- 0 0.0 5.0 10 17
- 0.354026 0 3 tcp 616 ------- 0 0.0 5.0 12 19
r 0.356026 0 3 tcp 616 ------- 0 0.0 5.0 11 18
+ 0.356026 3 4 tcp 616 ------- 0 0.0 5.0 11 18
- 0.356026 3 4 tcp 616 ------- 0 0.0 5.0 11 18
- 0.358954 0 3 tcp 616 ------- 0 0.0 5.0 13 20
r 0.360954 0 3 tcp 616 ------- 0 0.0 5.0 12 19
+ 0.360954 3 4 tcp 616 ------- 0 0.0 5.0 12 19
- 0.360954 3 4 tcp 616 ------- 0 0.0 5.0 12 19
- 0.363882 0 3 tcp 616 ------- 0 0.0 5.0 14 21
r 0.365882 0 3 tcp 616 ------- 0 0.0 5.0 13 20
+ 0.365882 3 4 tcp 616 ------- 0 0.0 5.0 13 20
- 0.365882 3 4 tcp 616 ------- 0 0.0 5.0 13 20
r 0.37081 0 3 tcp 616 ------- 0 0.0 5.0 14 21
+ 0.37081 3 4 tcp 616 ------- 0 0.0 5.0 14 21
- 0.37081 3 4 tcp 616 ------- 0 0.0 5.0 14 21
r 0.386242 3 4 tcp 616 ------- 0 0.0 5.0 7 14
+ 0.386242 4 5 tcp 616 ------- 0 0.0 5.0 7 14
- 0.386242 4 5 tcp 616 ------- 0 0.0 5.0 7 14
r 0.390734 4 5 tcp 616 ------- 0 0.0 5.0 7 14
+ 0.390734 5 4 ack 40 ------- 0 5.0 0.0 7 22
- 0.390734 5 4 ack 40 ------- 0 5.0 0.0 7 22
r 0.39117 3 4 tcp 616 ------- 0 0.0 5.0 8 15
+ 0.39117 4 5 tcp 616 ------- 0 0.0 5.0 8 15
- 0.39117 4 5 tcp 616 ------- 0 0.0 5.0 8 15
r 0.394766 5 4 ack 40 ------- 0 5.0 0.0 7 22
+ 0.394766 4 3 ack 40 ------- 0 5.0 0.0 7 22
- 0.394766 4 3 ack 40 ------- 0 5.0 0.0 7 22
r 0.395662 4 5 tcp 616 ------- 0 0.0 5.0 8 15
+ 0.395662 5 4 ack 40 ------- 0 5.0 0.0 8 23
- 0.395662 5 4 ack 40 ------- 0 5.0 0.0 8 23
r 0.396098 3 4 tcp 616 ------- 0 0.0 5.0 9 16
+ 0.396098 4 5 tcp 616 ------- 0 0.0 5.0 9 16
- 0.396098 4 5 tcp 616 ------- 0 0.0 5.0 9 16
r 0.399694 5 4 ack 40 ------- 0 5.0 0.0 8 23
+ 0.399694 4 3 ack 40 ------- 0 5.0 0.0 8 23
- 0.399694 4 3 ack 40 ------- 0 5.0 0.0 8 23
r 0.40059 4 5 tcp 616 ------- 0 0.0 5.0 9 16
+ 0.40059 5 4 ack 40 ------- 0 5.0 0.0 9 24
- 0.40059 5 4 ack 40 ------- 0 5.0 0.0 9 24
r 0.401026 3 4 tcp 616 ------- 0 0.0 5.0 10 17
+ 0.401026 4 5 tcp 616 ------- 0 0.0 5.0 10 17
- 0.401026 4 5 tcp 616 ------- 0 0.0 5.0 10 17
r 0.404622 5 4 ack 40 ------- 0 5.0 0.0 9 24
+ 0.404622 4 3 ack 40 ------- 0 5.0 0.0 9 24
- 0.404622 4 3 ack 40 ------- 0 5.0 0.0 9 24
r 0.405518 4 5 tcp 616 ------- 0 0.0 5.0 10 17
+ 0.405518 5 4 ack 40 ------- 0 5.0 0.0 10 25
- 0.405518 5 4 ack 40 ------- 0 5.0 0.0 10 25
r 0.405954 3 4 tcp 616 ------- 0 0.0 5.0 11 18
+ 0.405954 4 5 tcp 616 ------- 0 0.0 5.0 11 18
- 0.405954 4 5 tcp 616 ------- 0 0.0 5.0 11 18
r 0.40955 5 4 ack 40 ------- 0 5.0 0.0 10 25
+ 0.40955 4 3 ack 40 ------- 0 5.0 0.0 10 25
- 0.40955 4 3 ack 40 ------- 0 5.0 0.0 10 25
r 0.410446 4 5 tcp 616 ------- 0 0.0 5.0 11 18
+ 0.410446 5 4 ack 40 ------- 0 5.0 0.0 11 26
- 0.410446 5 4 ack 40 ------- 0 5.0 0.0 11 26
r 0.410882 3 4 tcp 616 ------- 0 0.0 5.0 12 19
+ 0.410882 4 5 tcp 616 ------- 0 0.0 5.0 12 19
- 0.410882 4 5 tcp 616 ------- 0 0.0 5.0 12 19
r 0.414478 5 4 ack 40 ------- 0 5.0 0.0 11 26
+ 0.414478 4 3 ack 40 ------- 0 5.0 0.0 11 26
- 0.414478 4 3 ack 40 ------- 0 5.0 0.0 11 26
r 0.415374 4 5 tcp 616 ------- 0 0.0 5.0 12 19
+ 0.415374 5 4 ack 40 ------- 0 5.0 0.0 12 27
- 0.415374 5 4 ack 40 ------- 0 5.0 0.0 12 27
r 0.41581 3 4 tcp 616 ------- 0 0.0 5.0 13 20
+ 0.41581 4 5 tcp 616 ------- 0 0.0 5.0 13 20
- 0.41581 4 5 tcp 616 ------- 0 0.0 5.0 13 20
r 0.419406 5 4 ack 40 ------- 0 5.0 0.0 12 27
+ 0.419406 4 3 ack 40 ------- 0 5.0 0.0 12 27
- 0.419406 4 3 ack 40 ------- 0 5.0 0.0 12 27
r 0.420302 4 5 tcp 616 ------- 0 0.0 5.0 13 20
+ 0.420302 5 4 ack 40 ------- 0 5.0 0.0 13 28
- 0.420302 5 4 ack 40 ------- 0 5.0 0.0 13 28
r 0.420738 3 4 tcp 616 ------- 0 0.0 5.0 14 21
+ 0.420738 4 5 tcp 616 ------- 0 0.0 5.0 14 21
- 0.420738 4 5 tcp 616 ------- 0 0.0 5.0 14 21
r 0.424334 5 4 ack 40 ------- 0 5.0 0.0 13 28
+ 0.424334 4 3 ack 40 ------- 0 5.0 0.0 13 28
- 0.424334 4 3 ack 40 ------- 0 5.0 0.0 13 28
r 0.42523 4 5 tcp 616 ------- 0 0.0 5.0 14 21
+ 0.42523 5 4 ack 40 ------- 0 5.0 0.0 14 29
- 0.42523 5 4 ack 40 ------- 0 5.0 0.0 14 29
r 0.429262 5 4 ack 40 ------- 0 5.0 0.0 14 29
+ 0.429262 4 3 ack 40 ------- 0 5.0 0.0 14 29
- 0.429262 4 3 ack 40 ------- 0 5.0 0.0 14 29
r 0.440086 4 3 ack 40 ------- 0 5.0 0.0 7 22
+ 0.440086 3 0 ack 40 ------- 0 5.0 0.0 7 22
- 0.440086 3 0 ack 40 ------- 0 5.0 0.0 7 22
r 0.442406 3 0 ack 40 ------- 0 5.0 0.0 7 22
+ 0.442406 0 3 tcp 616 ------- 0 0.0 5.0 15 30
- 0.442406 0 3 tcp 616 ------- 0 0.0 5.0 15 30
+ 0.442406 0 3 tcp 616 ------- 0 0.0 5.0 16 31
r 0.445014 4 3 ack 40 ------- 0 5.0 0.0 8 23
+ 0.445014 3 0 ack 40 ------- 0 5.0 0.0 8 23
- 0.445014 3 0 ack 40 ------- 0 5.0 0.0 8 23
r 0.447334 3 0 ack 40 ------- 0 5.0 0.0 8 23
+ 0.447334 0 3 tcp 616 ------- 0 0.0 5.0 17 32
+ 0.447334 0 3 tcp 616 ------- 0 0.0 5.0 18 33
- 0.447334 0 3 tcp 616 ------- 0 0.0 5.0 16 31
r 0.449334 0 3 tcp 616 ------- 0 0.0 5.0 15 30
+ 0.449334 3 4 tcp 616 ------- 0 0.0 5.0 15 30
- 0.449334 3 4 tcp 616 ------- 0 0.0 5.0 15 30
r 0.449942 4 3 ack 40 ------- 0 5.0 0.0 9 24
+ 0.449942 3 0 ack 40 ------- 0 5.0 0.0 9 24
- 0.449942 3 0 ack 40 ------- 0 5.0 0.0 9 24
- 0.452262 0 3 tcp 616 ------- 0 0.0 5.0 17 32
r 0.452262 3 0 ack 40 ------- 0 5.0 0.0 9 24
+ 0.452262 0 3 tcp 616 ------- 0 0.0 5.0 19 34
+ 0.452262 0 3 tcp 616 ------- 0 0.0 5.0 20 35
r 0.454262 0 3 tcp 616 ------- 0 0.0 5.0 16 31
+ 0.454262 3 4 tcp 616 ------- 0 0.0 5.0 16 31
- 0.454262 3 4 tcp 616 ------- 0 0.0 5.0 16 31
r 0.45487 4 3 ack 40 ------- 0 5.0 0.0 10 25
+ 0.45487 3 0 ack 40 ------- 0 5.0 0.0 10 25
- 0.45487 3 0 ack 40 ------- 0 5.0 0.0 10 25
r 0.45719 3 0 ack 40 ------- 0 5.0 0.0 10 25
+ 0.45719 0 3 tcp 616 ------- 0 0.0 5.0 21 36
+ 0.45719 0 3 tcp 616 ------- 0 0.0 5.0 22 37
- 0.45719 0 3 tcp 616 ------- 0 0.0 5.0 18 33
r 0.45919 0 3 tcp 616 ------- 0 0.0 5.0 17 32
+ 0.45919 3 4 tcp 616 ------- 0 0.0 5.0 17 32
- 0.45919 3 4 tcp 616 ------- 0 0.0 5.0 17 32
r 0.459798 4 3 ack 40 ------- 0 5.0 0.0 11 26
+ 0.459798 3 0 ack 40 ------- 0 5.0 0.0 11 26
- 0.459798 3 0 ack 40 ------- 0 5.0 0.0 11 26
- 0.462118 0 3 tcp 616 ------- 0 0.0 5.0 19 34
r 0.462118 3 0 ack 40 ------- 0 5.0 0.0 11 26
+ 0.462118 0 3 tcp 616 ------- 0 0.0 5.0 23 38
+ 0.462118 0 3 tcp 616 ------- 0 0.0 5.0 24 39
r 0.464118 0 3 tcp 616 ------- 0 0.0 5.0 18 33
+ 0.464118 3 4 tcp 616 ------- 0 0.0 5.0 18 33
- 0.464118 3 4 tcp 616 ------- 0 0.0 5.0 18 33
r 0.464726 4 3 ack 40 ------- 0 5.0 0.0 12 27
+ 0.464726 3 0 ack 40 ------- 0 5.0 0.0 12 27
- 0.464726 3 0 ack 40 ------- 0 5.0 0.0 12 27
r 0.467046 3 0 ack 40 ------- 0 5.0 0.0 12 27
+ 0.467046 0 3 tcp 616 ------- 0 0.0 5.0 25 40
+ 0.467046 0 3 tcp 616 ------- 0 0.0 5.0 26 41
- 0.467046 0 3 tcp 616 ------- 0 0.0 5.0 20 35
r 0.469046 0 3 tcp 616 ------- 0 0.0 5.0 19 34
+ 0.469046 3 4 tcp 616 ------- 0 0.0 5.0 19 34
- 0.469046 3 4 tcp 616 ------- 0 0.0 5.0 19 34
r 0.469654 4 3 ack 40 ------- 0 5.0 0.0 13 28
+ 0.469654 3 0 ack 40 ------- 0 5.0 0.0 13 28
- 0.469654 3 0 ack 40 ------- 0 5.0 0.0 13 28
- 0.471974 0 3 tcp 616 ------- 0 0.0 5.0 21 36
r 0.471974 3 0 ack 40 ------- 0 5.0 0.0 13 28
+ 0.471974 0 3 tcp 616 ------- 0 0.0 5.0 27 42
+ 0.471974 0 3 tcp 616 ------- 0 0.0 5.0 28 43
r 0.473974 0 3 tcp 616 ------- 0 0.0 5.0 20 35
+ 0.473974 3 4 tcp 616 ------- 0 0.0 5.0 20 35
- 0.473974 3 4 tcp 616 ------- 0 0.0 5.0 20 35
r 0.474582 4 3 ack 40 ------- 0 5.0 0.0 14 29
+ 0.474582 3 0 ack 40 ------- 0 5.0 0.0 14 29
- 0.474582 3 0 ack 40 ------- 0 5.0 0.0 14 29
r 0.476902 3 0 ack 40 ------- 0 5.0 0.0 14 29
+ 0.476902 0 3 tcp 616 ------- 0 0.0 5.0 29 44
+ 0.476902 0 3 tcp 616 ------- 0 0.0 5.0 30 45
- 0.476902 0 3 tcp 616 ------- 0 0.0 5.0 22 37
r 0.478902 0 3 tcp 616 ------- 0 0.0 5.0 21 36
+ 0.478902 3 4 tcp 616 ------- 0 0.0 5.0 21 36
- 0.478902 3 4 tcp 616 ------- 0 0.0 5.0 21 36
- 0.48183 0 3 tcp 616 ------- 0 0.0 5.0 23 38
r 0.48383 0 3 tcp 616 ------- 0 0.0 5.0 22 37
+ 0.48383 3 4 tcp 616 ------- 0 0.0 5.0 22 37
- 0.48383 3 4 tcp 616 ------- 0 0.0 5.0 22 37
- 0.486758 0 3 tcp 616 ------- 0 0.0 5.0 24 39
r 0.488758 0 3 tcp 616 ------- 0 0.0 5.0 23 38
+ 0.488758 3 4 tcp 616 ------- 0 0.0 5.0 23 38
- 0.488758 3 4 tcp 616 ------- 0 0.0 5.0 23 38
- 0.491686 0 3 tcp 616 ------- 0 0.0 5.0 25 40
r 0.493686 0 3 tcp 616 ------- 0 0.0 5.0 24 39
+ 0.493686 3 4 tcp 616 ------- 0 0.0 5.0 24 39
- 0.493686 3 4 tcp 616 ------- 0 0.0 5.0 24 39
- 0.496614 0 3 tcp 616 ------- 0 0.0 5.0 26 41
r 0.498614 0 3 tcp 616 ------- 0 0.0 5.0 25 40
+ 0.498614 3 4 tcp 616 ------- 0 0.0 5.0 25 40
- 0.498614 3 4 tcp 616 ------- 0 0.0 5.0 25 40
r 0.499262 3 4 tcp 616 ------- 0 0.0 5.0 15 30
+ 0.499262 4 5 tcp 616 ------- 0 0.0 5.0 15 30
- 0.499262 4 5 tcp 616 ------- 0 0.0 5.0 15 30
- 0.501542 0 3 tcp 616 ------- 0 0.0 5.0 27 42
r 0.503542 0 3 tcp 616 ------- 0 0.0 5.0 26 41
+ 0.503542 3 4 tcp 616 ------- 0 0.0 5.0 26 41
- 0.503542 3 4 tcp 616 ------- 0 0.0 5.0 26 41
r 0.503755 4 5 tcp 616 ------- 0 0.0 5.0 15 30
+ 0.503755 5 4 ack 40 ------- 0 5.0 0.0 15 46
- 0.503755 5 4 ack 40 ------- 0 5.0 0.0 15 46
r 0.50419 3 4 tcp 616 ------- 0 0.0 5.0 16 31
+ 0.50419 4 5 tcp 616 ------- 0 0.0 5.0 16 31
- 0.50419 4 5 tcp 616 ------- 0 0.0 5.0 16 31
- 0.50647 0 3 tcp 616 ------- 0 0.0 5.0 28 43
r 0.507787 5 4 ack 40 ------- 0 5.0 0.0 15 46
+ 0.507787 4 3 ack 40 ------- 0 5.0 0.0 15 46
- 0.507787 4 3 ack 40 ------- 0 5.0 0.0 15 46
r 0.50847 0 3 tcp 616 ------- 0 0.0 5.0 27 42
+ 0.50847 3 4 tcp 616 ------- 0 0.0 5.0 27 42
- 0.50847 3 4 tcp 616 ------- 0 0.0 5.0 27 42
r 0.508683 4 5 tcp 616 ------- 0 0.0 5.0 16 31
+ 0.508683 5 4 ack 40 ------- 0 5.0 0.0 16 47
- 0.508683 5 4 ack 40 ------- 0 5.0 0.0 16 47
r 0.509118 3 4 tcp 616 ------- 0 0.0 5.0 17 32
+ 0.509118 4 5 tcp 616 ------- 0 0.0 5.0 17 32
- 0.509118 4 5 tcp 616 ------- 0 0.0 5.0 17 32
- 0.511398 0 3 tcp 616 ------- 0 0.0 5.0 29 44
r 0.512715 5 4 ack 40 ------- 0 5.0 0.0 16 47
+ 0.512715 4 3 ack 40 ------- 0 5.0 0.0 16 47
- 0.512715 4 3 ack 40 ------- 0 5.0 0.0 16 47
r 0.513398 0 3 tcp 616 ------- 0 0.0 5.0 28 43
+ 0.513398 3 4 tcp 616 ------- 0 0.0 5.0 28 43
- 0.513398 3 4 tcp 616 ------- 0 0.0 5.0 28 43
r 0.513611 4 5 tcp 616 ------- 0 0.0 5.0 17 32
+ 0.513611 5 4 ack 40 ------- 0 5.0 0.0 17 48
- 0.513611 5 4 ack 40 ------- 0 5.0 0.0 17 48
r 0.514046 3 4 tcp 616 ------- 0 0.0 5.0 18 33
+ 0.514046 4 5 tcp 616 ------- 0 0.0 5.0 18 33
- 0.514046 4 5 tcp 616 ------- 0 0.0 5.0 18 33
- 0.516326 0 3 tcp 616 ------- 0 0.0 5.0 30 45
r 0.517643 5 4 ack 40 ------- 0 5.0 0.0 17 48
+ 0.517643 4 3 ack 40 ------- 0 5.0 0.0 17 48
- 0.517643 4 3 ack 40 ------- 0 5.0 0.0 17 48
r 0.518326 0 3 tcp 616 ------- 0 0.0 5.0 29 44
+ 0.518326 3 4 tcp 616 ------- 0 0.0 5.0 29 44
- 0.518326 3 4 tcp 616 ------- 0 0.0 5.0 29 44
r 0.518539 4 5 tcp 616 ------- 0 0.0 5.0 18 33
+ 0.518539 5 4 ack 40 ------- 0 5.0 0.0 18 49
- 0.518539 5 4 ack 40 ------- 0 5.0 0.0 18 49
r 0.518974 3 4 tcp 616 ------- 0 0.0 5.0 19 34
+ 0.518974 4 5 tcp 616 ------- 0 0.0 5.0 19 34
- 0.518974 4 5 tcp 616 ------- 0 0.0 5.0 19 34
r 0.522571 5 4 ack 40 ------- 0 5.0 0.0 18 49
+ 0.522571 4 3 ack 40 ------- 0 5.0 0.0 18 49
- 0.522571 4 3 ack 40 ------- 0 5.0 0.0 18 49
r 0.523254 0 3 tcp 616 ------- 0 0.0 5.0 30 45
+ 0.523254 3 4 tcp 616 ------- 0 0.0 5.0 30 45
- 0.523254 3 4 tcp 616 ------- 0 0.0 5.0 30 45
r 0.523467 4 5 tcp 616 ------- 0 0.0 5.0 19 34
+ 0.523467 5 4 ack 40 ------- 0 5.0 0.0 19 50
- 0.523467 5 4 ack 40 ------- 0 5.0 0.0 19 50
r 0.523902 3 4 tcp 616 ------- 0 0.0 5.0 20 35
+ 0.523902 4 5 tcp 616 ------- 0 0.0 5.0 20 35
- 0.523902 4 5 tcp 616 ------- 0 0.0 5.0 20 35
r 0.527499 5 4 ack 40 ------- 0 5.0 0.0 19 50
+ 0.527499 4 3 ack 40 ------- 0 5.0 0.0 19 50
- 0.527499 4 3 ack 40 ------- 0 5.0 0.0 19 50
r 0.528395 4 5 tcp 616 ------- 0 0.0 5.0 20 35
+ 0.528395 5 4 ack 40 ------- 0 5.0 0.0 20 51
- 0.528395 5 4 ack 40 ------- 0 5.0 0.0 20 51
r 0.52883 3 4 tcp 616 ------- 0 0.0 5.0 21 36
+ 0.52883 4 5 tcp 616 ------- 0 0.0 5.0 21 36
- 0.52883 4 5 tcp 616 ------- 0 0.0 5.0 21 36
r 0.532427 5 4 ack 40 ------- 0 5.0 0.0 20 51
+ 0.532427 4 3 ack 40 ------- 0 5.0 0.0 20 51
- 0.532427 4 3 ack 40 ------- 0 5.0 0.0 20 51
r 0.533323 4 5 tcp 616 ------- 0 0.0 5.0 21 36
+ 0.533323 5 4 ack 40 ------- 0 5.0 0.0 21 52
- 0.533323 5 4 ack 40 ------- 0 5.0 0.0 21 52
r 0.533758 3 4 tcp 616 ------- 0 0.0 5.0 22 37
+ 0.533758 4 5 tcp 616 ------- 0 0.0 5.0 22 37
- 0.533758 4 5 tcp 616 ------- 0 0.0 5.0 22 37
r 0.537355 5 4 ack 40 ------- 0 5.0 0.0 21 52
+ 0.537355 4 3 ack 40 ------- 0 5.0 0.0 21 52
- 0.537355 4 3 ack 40 ------- 0 5.0 0.0 21 52
r 0.538251 4 5 tcp 616 ------- 0 0.0 5.0 22 37
+ 0.538251 5 4 ack 40 ------- 0 5.0 0.0 22 53
- 0.538251 5 4 ack 40 ------- 0 5.0 0.0 22 53
r 0.538686 3 4 tcp 616 ------- 0 0.0 5.0 23 38
+ 0.538686 4 5 tcp 616 ------- 0 0.0 5.0 23 38
- 0.538686 4 5 tcp 616 ------- 0 0.0 5.0 23 38
r 0.542283 5 4 ack 40 ------- 0 5.0 0.0 22 53
+ 0.542283 4 3 ack 40 ------- 0 5.0 0.0 22 53
- 0.542283 4 3 ack 40 ------- 0 5.0 0.0 22 53
r 0.543179 4 5 tcp 616 ------- 0 0.0 5.0 23 38
+ 0.543179 5 4 ack 40 ------- 0 5.0 0.0 23 54
- 0.543179 5 4 ack 40 ------- 0 5.0 0.0 23 54
r 0.543614 3 4 tcp 616 ------- 0 0.0 5.0 24 39
+ 0.543614 4 5 tcp 616 ------- 0 0.0 5.0 24 39
- 0.543614 4 5 tcp 616 ------- 0 0.0 5.0 24 39
r 0.547211 5 4 ack 40 ------- 0 5.0 0.0 23 54
+ 0.547211 4 3 ack 40 ------- 0 5.0 0.0 23 54
- 0.547211 4 3 ack 40 ------- 0 5.0 0.0 23 54
r 0.548107 4 5 tcp 616 ------- 0 0.0 5.0 24 39
+ 0.548107 5 4 ack 40 ------- 0 5.0 0.0 24 55
- 0.548107 5 4 ack 40 ------- 0 5.0 0.0 24 55
r 0.548542 3 4 tcp 616 ------- 0 0.0 5.0 25 40
+ 0.548542 4 5 tcp 616 ------- 0 0.0 5.0 25 40
- 0.548542 4 5 tcp 616 ------- 0 0.0 5.0 25 40
r 0.552139 5 4 ack 40 ------- 0 5.0 0.0 24 55
+ 0.552139 4 3 ack 40 ------- 0 5.0 0.0 24 55
- 0.552139 4 3 ack 40 ------- 0 5.0 0.0 24 55
r 0.553035 4 5 tcp 616 ------- 0 0.0 5.0 25 40
+ 0.553035 5 4 ack 40 ------- 0 5.0 0.0 25 56
- 0.553035 5 4 ack 40 ------- 0 5.0 0.0 25 56
r 0.553107 4 3 ack 40 ------- 0 5.0 0.0 15 46
+ 0.553107 3 0 ack 40 ------- 0 5.0 0.0 15 46
- 0.553107 3 0 ack 40 ------- 0 5.0 0.0 15 46
r 0.55347 3 4 tcp 616 ------- 0 0.0 5.0 26 41
+ 0.55347 4 5 tcp 616 ------- 0 0.0 5.0 26 41
- 0.55347 4 5 tcp 616 ------- 0 0.0 5.0 26 41
r 0.555427 3 0 ack 40 ------- 0 5.0 0.0 15 46
+ 0.555427 0 3 tcp 616 ------- 0 0.0 5.0 31 57
- 0.555427 0 3 tcp 616 ------- 0 0.0 5.0 31 57
+ 0.555427 0 3 tcp 616 ------- 0 0.0 5.0 32 58
r 0.557067 5 4 ack 40 ------- 0 5.0 0.0 25 56
+ 0.557067 4 3 ack 40 ------- 0 5.0 0.0 25 56
- 0.557067 4 3 ack 40 ------- 0 5.0 0.0 25 56
r 0.557963 4 5 tcp 616 ------- 0 0.0 5.0 26 41
+ 0.557963 5 4 ack 40 ------- 0 5.0 0.0 26 59
- 0.557963 5 4 ack 40 ------- 0 5.0 0.0 26 59
r 0.558035 4 3 ack 40 ------- 0 5.0 0.0 16 47
+ 0.558035 3 0 ack 40 ------- 0 5.0 0.0 16 47
- 0.558035 3 0 ack 40 ------- 0 5.0 0.0 16 47
r 0.558398 3 4 tcp 616 ------- 0 0.0 5.0 27 42
+ 0.558398 4 5 tcp 616 ------- 0 0.0 5.0 27 42
- 0.558398 4 5 tcp 616 ------- 0 0.0 5.0 27 42
r 0.560355 3 0 ack 40 ------- 0 5.0 0.0 16 47
+ 0.560355 0 3 tcp 616 ------- 0 0.0 5.0 33 60
+ 0.560355 0 3 tcp 616 ------- 0 0.0 5.0 34 61
- 0.560355 0 3 tcp 616 ------- 0 0.0 5.0 32 58
r 0.561995 5 4 ack 40 ------- 0 5.0 0.0 26 59
+ 0.561995 4 3 ack 40 ------- 0 5.0 0.0 26 59
- 0.561995 4 3 ack 40 ------- 0 5.0 0.0 26 59
r 0.562355 0 3 tcp 616 ------- 0 0.0 5.0 31 57
+ 0.562355 3 4 tcp 616 ------- 0 0.0 5.0 31 57
- 0.562355 3 4 tcp 616 ------- 0 0.0 5.0 31 57
r 0.562891 4 5 tcp 616 ------- 0 0.0 5.0 27 42
+ 0.562891 5 4 ack 40 ------- 0 5.0 0.0 27 62
- 0.562891 5 4 ack 40 ------- 0 5.0 0.0 27 62
r 0.562963 4 3 ack 40 ------- 0 5.0 0.0 17 48
+ 0.562963 3 0 ack 40 ------- 0 5.0 0.0 17 48
- 0.562963 3 0 ack 40 ------- 0 5.0 0.0 17 48
r 0.563326 3 4 tcp 616 ------- 0 0.0 5.0 28 43
+ 0.563326 4 5 tcp 616 ------- 0 0.0 5.0 28 43
- 0.563326 4 5 tcp 616 ------- 0 0.0 5.0 28 43
r 0.565283 3 0 ack 40 ------- 0 5.0 0.0 17 48
+ 0.565283 0 3 tcp 616 ------- 0 0.0 5.0 35 63
+ 0.565283 0 3 tcp 616 ------- 0 0.0 5.0 36 64
- 0.565283 0 3 tcp 616 ------- 0 0.0 5.0 33 60
r 0.566923 5 4 ack 40 ------- 0 5.0 0.0 27 62
+ 0.566923 4 3 ack 40 ------- 0 5.0 0.0 27 62
- 0.566923 4 3 ack 40 ------- 0 5.0 0.0 27 62
r 0.567283 0 3 tcp 616 ------- 0 0.0 5.0 32 58
+ 0.567283 3 4 tcp 616 ------- 0 0.0 5.0 32 58
- 0.567283 3 4 tcp 616 ------- 0 0.0 5.0 32 58
r 0.567819 4 5 tcp 616 ------- 0 0.0 5.0 28 43
+ 0.567819 5 4 ack 40 ------- 0 5.0 0.0 28 65
- 0.567819 5 4 ack 40 ------- 0 5.0 0.0 28 65
r 0.567891 4 3 ack 40 ------- 0 5.0 0.0 18 49
+ 0.567891 3 0 ack 40 ------- 0 5.0 0.0 18 49
- 0.567891 3 0 ack 40 ------- 0 5.0 0.0 18 49
r 0.568254 3 4 tcp 616 ------- 0 0.0 5.0 29 44
+ 0.568254 4 5 tcp 616 ------- 0 0.0 5.0 29 44
- 0.568254 4 5 tcp 616 ------- 0 0.0 5.0 29 44
r 0.570211 3 0 ack 40 ------- 0 5.0 0.0 18 49
+ 0.570211 0 3 tcp 616 ------- 0 0.0 5.0 37 66
+ 0.570211 0 3 tcp 616 ------- 0 0.0 5.0 38 67
- 0.570211 0 3 tcp 616 ------- 0 0.0 5.0 34 61
r 0.571851 5 4 ack 40 ------- 0 5.0 0.0 28 65
+ 0.571851 4 3 ack 40 ------- 0 5.0 0.0 28 65
- 0.571851 4 3 ack 40 ------- 0 5.0 0.0 28 65
r 0.572211 0 3 tcp 616 ------- 0 0.0 5.0 33 60
+ 0.572211 3 4 tcp 616 ------- 0 0.0 5.0 33 60
- 0.572211 3 4 tcp 616 ------- 0 0.0 5.0 33 60
r 0.572747 4 5 tcp 616 ------- 0 0.0 5.0 29 44
+ 0.572747 5 4 ack 40 ------- 0 5.0 0.0 29 68
- 0.572747 5 4 ack 40 ------- 0 5.0 0.0 29 68
r 0.572819 4 3 ack 40 ------- 0 5.0 0.0 19 50
+ 0.572819 3 0 ack 40 ------- 0 5.0 0.0 19 50
- 0.572819 3 0 ack 40 ------- 0 5.0 0.0 19 50
r 0.573182 3 4 tcp 616 ------- 0 0.0 5.0 30 45
+ 0.573182 4 5 tcp 616 ------- 0 0.0 5.0 30 45
- 0.573182 4 5 tcp 616 ------- 0 0.0 5.0 30 45
r 0.575139 3 0 ack 40 ------- 0 5.0 0.0 19 50
+ 0.575139 0 3 tcp 616 ------- 0 0.0 5.0 39 69
+ 0.575139 0 3 tcp 616 ------- 0 0.0 5.0 40 70
- 0.575139 0 3 tcp 616 ------- 0 0.0 5.0 35 63
r 0.576779 5 4 ack 40 ------- 0 5.0 0.0 29 68
+ 0.576779 4 3 ack 40 ------- 0 5.0 0.0 29 68
- 0.576779 4 3 ack 40 ------- 0 5.0 0.0 29 68
r 0.577139 0 3 tcp 616 ------- 0 0.0 5.0 34 61
+ 0.577139 3 4 tcp 616 ------- 0 0.0 5.0 34 61
- 0.577139 3 4 tcp 616 ------- 0 0.0 5.0 34 61
r 0.577675 4 5 tcp 616 ------- 0 0.0 5.0 30 45
+ 0.577675 5 4 ack 40 ------- 0 5.0 0.0 30 71
- 0.577675 5 4 ack 40 ------- 0 5.0 0.0 30 71
r 0.577747 4 3 ack 40 ------- 0 5.0 0.0 20 51
+ 0.577747 3 0 ack 40 ------- 0 5.0 0.0 20 51
- 0.577747 3 0 ack 40 ------- 0 5.0 0.0 20 51
r 0.580067 3 0 ack 40 ------- 0 5.0 0.0 20 51
+ 0.580067 0 3 tcp 616 ------- 0 0.0 5.0 41 72
+ 0.580067 0 3 tcp 616 ------- 0 0.0 5.0 42 73
- 0.580067 0 3 tcp 616 ------- 0 0.0 5.0 36 64
r 0.581707 5 4 ack 40 ------- 0 5.0 0.0 30 71
+ 0.581707 4 3 ack 40 ------- 0 5.0 0.0 30 71
- 0.581707 4 3 ack 40 ------- 0 5.0 0.0 30 71
r 0.582067 0 3 tcp 616 ------- 0 0.0 5.0 35 63
+ 0.582067 3 4 tcp 616 ------- 0 0.0 5.0 35 63
- 0.582067 3 4 tcp 616 ------- 0 0.0 5.0 35 63
r 0.582675 4 3 ack 40 ------- 0 5.0 0.0 21 52
+ 0.582675 3 0 ack 40 ------- 0 5.0 0.0 21 52
- 0.582675 3 0 ack 40 ------- 0 5.0 0.0 21 52
r 0.584995 3 0 ack 40 ------- 0 5.0 0.0 21 52
+ 0.584995 0 3 tcp 616 ------- 0 0.0 5.0 43 74
+ 0.584995 0 3 tcp 616 ------- 0 0.0 5.0 44 75
- 0.584995 0 3 tcp 616 ------- 0 0.0 5.0 37 66
r 0.586995 0 3 tcp 616 ------- 0 0.0 5.0 36 64
+ 0.586995 3 4 tcp 616 ------- 0 0.0 5.0 36 64
- 0.586995 3 4 tcp 616 ------- 0 0.0 5.0 36 64
r 0.587603 4 3 ack 40 ------- 0 5.0 0.0 22 53
+ 0.587603 3 0 ack 40 ------- 0 5.0 0.0 22 53
- 0.587603 3 0 ack 40 ------- 0 5.0 0.0 22 53
r 0.589923 3 0 ack 40 ------- 0 5.0 0.0 22 53
+ 0.589923 0 3 tcp 616 ------- 0 0.0 5.0 45 76
+ 0.589923 0 3 tcp 616 ------- 0 0.0 5.0 46 77
- 0.589923 0 3 tcp 616 ------- 0 0.0 5.0 38 67
r 0.591923 0 3 tcp 616 ------- 0 0.0 5.0 37 66
+ 0.591923 3 4 tcp 616 ------- 0 0.0 5.0 37 66
- 0.591923 3 4 tcp 616 ------- 0 0.0 5.0 37 66
r 0.592531 4 3 ack 40 ------- 0 5.0 0.0 23 54
+ 0.592531 3 0 ack 40 ------- 0 5.0 0.0 23 54
- 0.592531 3 0 ack 40 ------- 0 5.0 0.0 23 54
r 0.594851 3 0 ack 40 ------- 0 5.0 0.0 23 54
+ 0.594851 0 3 tcp 616 ------- 0 0.0 5.0 47 78
+ 0.594851 0 3 tcp 616 ------- 0 0.0 5.0 48 79
- 0.594851 0 3 tcp 616 ------- 0 0.0 5.0 39 69
r 0.596851 0 3 tcp 616 ------- 0 0.0 5.0 38 67
+ 0.596851 3 4 tcp 616 ------- 0 0.0 5.0 38 67
- 0.596851 3 4 tcp 616 ------- 0 0.0 5.0 38 67
r 0.597459 4 3 ack 40 ------- 0 5.0 0.0 24 55
+ 0.597459 3 0 ack 40 ------- 0 5.0 0.0 24 55
- 0.597459 3 0 ack 40 ------- 0 5.0 0.0 24 55
r 0.599779 3 0 ack 40 ------- 0 5.0 0.0 24 55
+ 0.599779 0 3 tcp 616 ------- 0 0.0 5.0 49 80
+ 0.599779 0 3 tcp 616 ------- 0 0.0 5.0 50 81
- 0.599779 0 3 tcp 616 ------- 0 0.0 5.0 40 70
r 0.601779 0 3 tcp 616 ------- 0 0.0 5.0 39 69
+ 0.601779 3 4 tcp 616 ------- 0 0.0 5.0 39 69
- 0.601779 3 4 tcp 616 ------- 0 0.0 5.0 39 69
r 0.602387 4 3 ack 40 ------- 0 5.0 0.0 25 56
+ 0.602387 3 0 ack 40 ------- 0 5.0 0.0 25 56
- 0.602387 3 0 ack 40 ------- 0 5.0 0.0 25 56
r 0.604707 3 0 ack 40 ------- 0 5.0 0.0 25 56
+ 0.604707 0 3 tcp 616 ------- 0 0.0 5.0 51 82
+ 0.604707 0 3 tcp 616 ------- 0 0.0 5.0 52 83
- 0.604707 0 3 tcp 616 ------- 0 0.0 5.0 41 72
r 0.606707 0 3 tcp 616 ------- 0 0.0 5.0 40 70
+ 0.606707 3 4 tcp 616 ------- 0 0.0 5.0 40 70
- 0.606707 3 4 tcp 616 ------- 0 0.0 5.0 40 70
r 0.607315 4 3 ack 40 ------- 0 5.0 0.0 26 59
+ 0.607315 3 0 ack 40 ------- 0 5.0 0.0 26 59
- 0.607315 3 0 ack 40 ------- 0 5.0 0.0 26 59
r 0.609635 3 0 ack 40 ------- 0 5.0 0.0 26 59
+ 0.609635 0 3 tcp 616 ------- 0 0.0 5.0 53 84
+ 0.609635 0 3 tcp 616 ------- 0 0.0 5.0 54 85
- 0.609635 0 3 tcp 616 ------- 0 0.0 5.0 42 73
r 0.611635 0 3 tcp 616 ------- 0 0.0 5.0 41 72
+ 0.611635 3 4 tcp 616 ------- 0 0.0 5.0 41 72
- 0.611635 3 4 tcp 616 ------- 0 0.0 5.0 41 72
r 0.612243 4 3 ack 40 ------- 0 5.0 0.0 27 62
+ 0.612243 3 0 ack 40 ------- 0 5.0 0.0 27 62
- 0.612243 3 0 ack 40 ------- 0 5.0 0.0 27 62
r 0.612283 3 4 tcp 616 ------- 0 0.0 5.0 31 57
+ 0.612283 4 5 tcp 616 ------- 0 0.0 5.0 31 57
- 0.612283 4 5 tcp 616 ------- 0 0.0 5.0 31 57
r 0.614563 3 0 ack 40 ------- 0 5.0 0.0 27 62
+ 0.614563 0 3 tcp 616 ------- 0 0.0 5.0 55 86
+ 0.614563 0 3 tcp 616 ------- 0 0.0 5.0 56 87
- 0.614563 0 3 tcp 616 ------- 0 0.0 5.0 43 74
r 0.616563 0 3 tcp 616 ------- 0 0.0 5.0 42 73
+ 0.616563 3 4 tcp 616 ------- 0 0.0 5.0 42 73
- 0.616563 3 4 tcp 616 ------- 0 0.0 5.0 42 73
r 0.616776 4 5 tcp 616 ------- 0 0.0 5.0 31 57
+ 0.616776 5 4 ack 40 ------- 0 5.0 0.0 31 88
- 0.616776 5 4 ack 40 ------- 0 5.0 0.0 31 88
r 0.617171 4 3 ack 40 ------- 0 5.0 0.0 28 65
+ 0.617171 3 0 ack 40 ------- 0 5.0 0.0 28 65
- 0.617171 3 0 ack 40 ------- 0 5.0 0.0 28 65
r 0.617211 3 4 tcp 616 ------- 0 0.0 5.0 32 58
+ 0.617211 4 5 tcp 616 ------- 0 0.0 5.0 32 58
- 0.617211 4 5 tcp 616 ------- 0 0.0 5.0 32 58
r 0.619491 3 0 ack 40 ------- 0 5.0 0.0 28 65
+ 0.619491 0 3 tcp 616 ------- 0 0.0 5.0 57 89
+ 0.619491 0 3 tcp 616 ------- 0 0.0 5.0 58 90
- 0.619491 0 3 tcp 616 ------- 0 0.0 5.0 44 75
r 0.620808 5 4 ack 40 ------- 0 5.0 0.0 31 88
+ 0.620808 4 3 ack 40 ------- 0 5.0 0.0 31 88
- 0.620808 4 3 ack 40 ------- 0 5.0 0.0 31 88
r 0.621491 0 3 tcp 616 ------- 0 0.0 5.0 43 74
+ 0.621491 3 4 tcp 616 ------- 0 0.0 5.0 43 74
- 0.621491 3 4 tcp 616 ------- 0 0.0 5.0 43 74
r 0.621704 4 5 tcp 616 ------- 0 0.0 5.0 32 58
+ 0.621704 5 4 ack 40 ------- 0 5.0 0.0 32 91
- 0.621704 5 4 ack 40 ------- 0 5.0 0.0 32 91
r 0.622099 4 3 ack 40 ------- 0 5.0 0.0 29 68
+ 0.622099 3 0 ack 40 ------- 0 5.0 0.0 29 68
- 0.622099 3 0 ack 40 ------- 0 5.0 0.0 29 68
r 0.622139 3 4 tcp 616 ------- 0 0.0 5.0 33 60
+ 0.622139 4 5 tcp 616 ------- 0 0.0 5.0 33 60
- 0.622139 4 5 tcp 616 ------- 0 0.0 5.0 33 60